
                                 *****************
                                 * O   R   C   A *
                                 *****************

                                            #,                                       
                                            ###                                      
                                            ####                                     
                                            #####                                    
                                            ######                                   
                                           ########,                                 
                                     ,,################,,,,,                         
                               ,,#################################,,                 
                          ,,##########################################,,             
                       ,#########################################, ''#####,          
                    ,#############################################,,   '####,        
                  ,##################################################,,,,####,       
                ,###########''''           ''''###############################       
              ,#####''   ,,,,##########,,,,          '''####'''          '####       
            ,##' ,,,,###########################,,,                        '##       
           ' ,,###''''                  '''############,,,                           
         ,,##''                                '''############,,,,        ,,,,,,###''
      ,#''                                            '''#######################'''  
     '                                                          ''''####''''         
             ,#######,   #######,   ,#######,      ##                                
            ,#'     '#,  ##    ##  ,#'     '#,    #''#        ######   ,####,        
            ##       ##  ##   ,#'  ##            #'  '#       #        #'  '#        
            ##       ##  #######   ##           ,######,      #####,   #    #        
            '#,     ,#'  ##    ##  '#,     ,#' ,#      #,         ##   #,  ,#        
             '#######'   ##     ##  '#######'  #'      '#     #####' # '####'        



                  #######################################################
                  #                        -***-                        #
                  #          Department of theory and spectroscopy      #
                  #    Directorship and core code : Frank Neese         #
                  #        Max Planck Institute fuer Kohlenforschung    #
                  #                Kaiser Wilhelm Platz 1               #
                  #                 D-45470 Muelheim/Ruhr               #
                  #                      Germany                        #
                  #                                                     #
                  #                  All rights reserved                #
                  #                        -***-                        #
                  #######################################################


                         Program Version 5.0.2 -  RELEASE  -


 With contributions from (in alphabetic order):
   Daniel Aravena         : Magnetic Suceptibility
   Michael Atanasov       : Ab Initio Ligand Field Theory (pilot matlab implementation)
   Alexander A. Auer      : GIAO ZORA, VPT2 properties, NMR spectrum
   Ute Becker             : Parallelization
   Giovanni Bistoni       : ED, misc. LED, open-shell LED, HFLD
   Martin Brehm           : Molecular dynamics
   Dmytro Bykov           : SCF Hessian
   Vijay G. Chilkuri      : MRCI spin determinant printing, contributions to CSF-ICE
   Dipayan Datta          : RHF DLPNO-CCSD density
   Achintya Kumar Dutta   : EOM-CC, STEOM-CC
   Dmitry Ganyushin       : Spin-Orbit,Spin-Spin,Magnetic field MRCI
   Miquel Garcia          : C-PCM and meta-GGA Hessian, CC/C-PCM, Gaussian charge scheme
   Yang Guo               : DLPNO-NEVPT2, F12-NEVPT2, CIM, IAO-localization
   Andreas Hansen         : Spin unrestricted coupled pair/coupled cluster methods
   Benjamin Helmich-Paris : MC-RPA, TRAH-SCF, COSX integrals
   Lee Huntington         : MR-EOM, pCC
   Robert Izsak           : Overlap fitted RIJCOSX, COSX-SCS-MP3, EOM
   Marcus Kettner         : VPT2
   Christian Kollmar      : KDIIS, OOCD, Brueckner-CCSD(T), CCSD density, CASPT2, CASPT2-K
   Simone Kossmann        : Meta GGA functionals, TD-DFT gradient, OOMP2, MP2 Hessian
   Martin Krupicka        : Initial AUTO-CI
   Lucas Lang             : DCDCAS
   Marvin Lechner         : AUTO-CI (C++ implementation), FIC-MRCC
   Dagmar Lenk            : GEPOL surface, SMD
   Dimitrios Liakos       : Extrapolation schemes; Compound Job, initial MDCI parallelization
   Dimitrios Manganas     : Further ROCIS development; embedding schemes
   Dimitrios Pantazis     : SARC Basis sets
   Anastasios Papadopoulos: AUTO-CI, single reference methods and gradients
   Taras Petrenko         : DFT Hessian,TD-DFT gradient, ASA, ECA, R-Raman, ABS, FL, XAS/XES, NRVS
   Peter Pinski           : DLPNO-MP2, DLPNO-MP2 Gradient
   Christoph Reimann      : Effective Core Potentials
   Marius Retegan         : Local ZFS, SOC
   Christoph Riplinger    : Optimizer, TS searches, QM/MM, DLPNO-CCSD(T), (RO)-DLPNO pert. Triples
   Tobias Risthaus        : Range-separated hybrids, TD-DFT gradient, RPA, STAB
   Michael Roemelt        : Original ROCIS implementation
   Masaaki Saitow         : Open-shell DLPNO-CCSD energy and density
   Barbara Sandhoefer     : DKH picture change effects
   Avijit Sen             : IP-ROCIS
   Kantharuban Sivalingam : CASSCF convergence, NEVPT2, FIC-MRCI
   Bernardo de Souza      : ESD, SOC TD-DFT
   Georgi Stoychev        : AutoAux, RI-MP2 NMR, DLPNO-MP2 response
   Willem Van den Heuvel  : Paramagnetic NMR
   Boris Wezisla          : Elementary symmetry handling
   Frank Wennmohs         : Technical directorship


 We gratefully acknowledge several colleagues who have allowed us to
 interface, adapt or use parts of their codes:
   Stefan Grimme, W. Hujo, H. Kruse, P. Pracht,  : VdW corrections, initial TS optimization,
                  C. Bannwarth, S. Ehlert          DFT functionals, gCP, sTDA/sTD-DF
   Ed Valeev, F. Pavosevic, A. Kumar             : LibInt (2-el integral package), F12 methods
   Garnet Chan, S. Sharma, J. Yang, R. Olivares  : DMRG
   Ulf Ekstrom                                   : XCFun DFT Library
   Mihaly Kallay                                 : mrcc  (arbitrary order and MRCC methods)
   Jiri Pittner, Ondrej Demel                    : Mk-CCSD
   Frank Weinhold                                : gennbo (NPA and NBO analysis)
   Christopher J. Cramer and Donald G. Truhlar   : smd solvation model
   Lars Goerigk                                  : TD-DFT with DH, B97 family of functionals
   V. Asgeirsson, H. Jonsson                     : NEB implementation
   FAccTs GmbH                                   : IRC, NEB, NEB-TS, DLPNO-Multilevel, CI-OPT
                                                   MM, QMMM, 2- and 3-layer-ONIOM, Crystal-QMMM,
                                                   LR-CPCM, SF, NACMEs, symmetry and pop. for TD-DFT,
                                                   nearIR, NL-DFT gradient (VV10), updates on ESD,
                                                   ML-optimized integration grids
   S Lehtola, MJT Oliveira, MAL Marques          : LibXC Library
   Liviu Ungur et al                             : ANISO software


 Your calculation uses the libint2 library for the computation of 2-el integrals
 For citations please refer to: http://libint.valeyev.net

 Your ORCA version has been built with support for libXC version: 5.1.0
 For citations please refer to: https://tddft.org/programs/libxc/

 This ORCA versions uses:
   CBLAS   interface :  Fast vector & matrix operations
   LAPACKE interface :  Fast linear algebra routines
   SCALAPACK package :  Parallel linear algebra routines
   Shared memory     :  Shared parallel matrices
   BLAS/LAPACK       :  OpenBLAS 0.3.15  USE64BITINT DYNAMIC_ARCH NO_AFFINITY Haswell SINGLE_THREADED
        Core in use  :  Haswell
   Copyright (c) 2011-2014, The OpenBLAS Project


Your calculation utilizes the atom-pairwise dispersion correction
with the Becke-Johnson damping scheme (D3BJ)
Cite in your paper:
S.Grimme, S.Ehrlich, L.Goerigk, J Comput Chem, (2011), 32, 1456–1465 
S.Grimme, J.Antony, S.Ehrlich and H.Krieg, J.Chem.Phys., 132, (2010), 154104 
   

================================================================================

----- Orbital basis set information -----
Your calculation utilizes the basis: def2-TZVP
   F. Weigend and R. Ahlrichs, Phys. Chem. Chem. Phys. 7, 3297 (2005).

----- AuxJ basis set information -----
Your calculation utilizes the auxiliary basis: def2/J
   F. Weigend, Phys. Chem. Chem. Phys. 8, 1057 (2006).

================================================================================
                                        WARNINGS
                       Please study these warnings very carefully!
================================================================================


WARNING: your system is open-shell and RHF/RKS was chosen
  ===> : WILL SWITCH to UHF/UKS


WARNING: The environment variable RSH_COMMAND is not set!
  ===> : All Displacements for the Numerical Hessian or Gradient calculation
         will be started on localhost

INFO   : the flag for use of the SHARK integral package has been found!

Your calculation utilizes the atom-pairwise dispersion correction
with the Becke-Johnson damping scheme (D3BJ)
Cite in your paper:
S.Grimme, S.Ehrlich, L.Goerigk, J Comput Chem, (2011), 32, 1456–1465 
S.Grimme, J.Antony, S.Ehrlich and H.Krieg, J.Chem.Phys., 132, (2010), 154104 
   

================================================================================

----- Orbital basis set information -----
Your calculation utilizes the basis: def2-TZVP
   F. Weigend and R. Ahlrichs, Phys. Chem. Chem. Phys. 7, 3297 (2005).

----- AuxJ basis set information -----
Your calculation utilizes the auxiliary basis: def2/J
   F. Weigend, Phys. Chem. Chem. Phys. 8, 1057 (2006).

================================================================================
                                        WARNINGS
                       Please study these warnings very carefully!
================================================================================


WARNING: MOInp is set but Guess=PModel. MOInp will be ignored!
         To read the initial guess from a file you must also specify
         'MORead' in the simple input or 'Guess MORead' in the %scf block


WARNING: The environment variable RSH_COMMAND is not set!
  ===> : All Displacements for the Numerical Hessian or Gradient calculation
         will be started on localhost

INFO   : the flag for use of the SHARK integral package has been found!

Your calculation utilizes the atom-pairwise dispersion correction
with the Becke-Johnson damping scheme (D3BJ)
Cite in your paper:
S.Grimme, S.Ehrlich, L.Goerigk, J Comput Chem, (2011), 32, 1456–1465 
S.Grimme, J.Antony, S.Ehrlich and H.Krieg, J.Chem.Phys., 132, (2010), 154104 
   

================================================================================

----- Orbital basis set information -----
Your calculation utilizes the basis: def2-TZVP
   F. Weigend and R. Ahlrichs, Phys. Chem. Chem. Phys. 7, 3297 (2005).

----- AuxJ basis set information -----
Your calculation utilizes the auxiliary basis: def2/J
   F. Weigend, Phys. Chem. Chem. Phys. 8, 1057 (2006).

================================================================================
                                        WARNINGS
                       Please study these warnings very carefully!
================================================================================


WARNING: MOInp is set but Guess=PModel. MOInp will be ignored!
         To read the initial guess from a file you must also specify
         'MORead' in the simple input or 'Guess MORead' in the %scf block


WARNING: The environment variable RSH_COMMAND is not set!
  ===> : All Displacements for the Numerical Hessian or Gradient calculation
         will be started on localhost

INFO   : the flag for use of the SHARK integral package has been found!

Your calculation utilizes the atom-pairwise dispersion correction
with the Becke-Johnson damping scheme (D3BJ)
Cite in your paper:
S.Grimme, S.Ehrlich, L.Goerigk, J Comput Chem, (2011), 32, 1456–1465 
S.Grimme, J.Antony, S.Ehrlich and H.Krieg, J.Chem.Phys., 132, (2010), 154104 
   

================================================================================

----- Orbital basis set information -----
Your calculation utilizes the basis: def2-TZVP
   F. Weigend and R. Ahlrichs, Phys. Chem. Chem. Phys. 7, 3297 (2005).

----- AuxJ basis set information -----
Your calculation utilizes the auxiliary basis: def2/J
   F. Weigend, Phys. Chem. Chem. Phys. 8, 1057 (2006).

================================================================================
                                        WARNINGS
                       Please study these warnings very carefully!
================================================================================


WARNING: MOInp is set but Guess=PModel. MOInp will be ignored!
         To read the initial guess from a file you must also specify
         'MORead' in the simple input or 'Guess MORead' in the %scf block


WARNING: The environment variable RSH_COMMAND is not set!
  ===> : All Displacements for the Numerical Hessian or Gradient calculation
         will be started on localhost

INFO   : the flag for use of the SHARK integral package has been found!

Your calculation utilizes the atom-pairwise dispersion correction
with the Becke-Johnson damping scheme (D3BJ)
Cite in your paper:
S.Grimme, S.Ehrlich, L.Goerigk, J Comput Chem, (2011), 32, 1456–1465 
S.Grimme, J.Antony, S.Ehrlich and H.Krieg, J.Chem.Phys., 132, (2010), 154104 
   

================================================================================

----- Orbital basis set information -----
Your calculation utilizes the basis: def2-TZVP
   F. Weigend and R. Ahlrichs, Phys. Chem. Chem. Phys. 7, 3297 (2005).

----- AuxJ basis set information -----
Your calculation utilizes the auxiliary basis: def2/J
   F. Weigend, Phys. Chem. Chem. Phys. 8, 1057 (2006).

================================================================================
                                        WARNINGS
                       Please study these warnings very carefully!
================================================================================


WARNING: MOInp is set but Guess=PModel. MOInp will be ignored!
         To read the initial guess from a file you must also specify
         'MORead' in the simple input or 'Guess MORead' in the %scf block


WARNING: The environment variable RSH_COMMAND is not set!
  ===> : All Displacements for the Numerical Hessian or Gradient calculation
         will be started on localhost

INFO   : the flag for use of the SHARK integral package has been found!

================================================================================
                                       INPUT FILE
================================================================================
NAME = ex.inp
|  1> ! PBE D3 def2-TZVP opt numfreq PModel NOAUTOSTART
|  2> %pal nprocs=16 end
|  3> %geom maxiter=150 end
|  4> %base "neutral"
|  5> *xyz 0 2
|  6>   C   -0.02140364152557     -0.80940218917645     -0.44708175794612
|  7>   C   -1.17264991171872      1.63236054975451      0.21088867046068
|  8>   C   -1.33606848448430     -0.75377106282309      0.00610105861508
|  9>   C   0.74935952055072      0.35450005108576     -0.56909152346357
| 10>   C   0.14833472577950      1.57404178188917     -0.22779391110093
| 11>   C   -1.94060610740944      0.47052350003093      0.33386429247406
| 12>   O   -3.22676799690382      0.57662509602763      0.77219018430929
| 13>   O   -2.10717856887760     -1.90898912601483      0.16652148937474
| 14>   C   2.19425722792535      0.28058832451440     -0.99306783387929
| 15>   C   3.15471908730219      0.20304416324050      0.20362826511013
| 16>   N   2.90292535973628     -1.01195480612932      0.98517260806348
| 17>   H   0.42363259676612     -1.77792949261602     -0.69496802687487
| 18>   H   -1.64344352033153      2.58410933757771      0.46020018122213
| 19>   H   0.72235223909186      2.49878750661014     -0.31619367907295
| 20>   H   -3.70073209510957     -0.28183457421848      0.63781409269925
| 21>   H   -1.58852648913673     -2.67630909359717     -0.14184015260760
| 22>   H   2.45099733622534      1.16794858680724     -1.59262475696223
| 23>   H   2.35587048539319     -0.60633326366640     -1.62439085576718
| 24>   H   4.18786967767474      0.15653140840230     -0.17510690673327
| 25>   H   3.06443230230597      1.14088154306932      0.78922840980533
| 26>   H   1.98738211942540     -0.94051761240599      1.43661957529592
| 27>   H   3.59053280629567     -1.09696050207577      1.73569529577660
| 28>   Cu  -4.23738147897507     -2.14481392028607     -0.56583123079868
| 29> *
| 30> 
| 31> $new_job
| 32> 
| 33> ! PBE D3 def2-TZVP opt numfreq PModel NOAUTOSTART
| 34> %pal nprocs=16 end
| 35> %geom maxiter=150 end
| 36> %base "protonated"
| 37> *xyz 1 2
| 38>   C   -1.36400846934019     -1.62479686188867     -0.10418494505748
| 39>   C   -0.17901053228662      0.84411414343272      0.36946527350921
| 40>   C   -2.13217463231913     -0.46554477811354     -0.17385520348008
| 41>   C   -0.00170192092867     -1.55981996956799      0.19424700232135
| 42>   C   0.59577330369121     -0.31940781932163      0.43341160230061
| 43>   C   -1.54336781883469      0.79635027383699      0.07029173342193
| 44>   O   -3.47651780902064     -0.48114767528546     -0.47940809814720
| 45>   O   -2.22148821629495      1.96274574532349      0.02497904596621
| 46>   C   2.07797568357685     -0.21659116784947      0.71304678728419
| 47>   C   2.80899191053844      0.12076965504039     -0.57920519578686
| 48>   N   4.31189977521447      0.28064160453514     -0.33511022727274
| 49>   H   4.71253329823077     -0.58729710290142      0.05028734774824
| 50>   H   4.82294753294896      0.51101013171252     -1.19956891395382
| 51>   H   4.48951750129644      1.03059710324910      0.34947014394808
| 52>   H   -1.83702019964496     -2.59323913153682     -0.28378876401533
| 53>   H   0.25127785132606      1.82700284736490      0.57535672421441
| 54>   H   0.57970046642223     -2.48129566088353      0.25564612096451
| 55>   H   -3.78671569977429     -1.40137340610958     -0.57576545178472
| 56>   H   -3.20475777538341      1.80801832115818     -0.07015248542823
| 57>   H   2.45101568663043     -1.17058794481091      1.12025637559051
| 58>   H   2.26959743705088      0.56673556967917      1.46639033250212
| 59>   H   2.70035254978077     -0.67008517783125     -1.33230268475755
| 60>   H   2.46436236943628      1.07023664447194     -1.00824523174293
| 61>   Cu  -5.25908998731626      1.12221176029572     -0.17845952134443
| 62> *
| 63> 
| 64> $new_job
| 65> 
| 66> ! PBE D3 def2-TZVP opt numfreq PModel NOAUTOSTART
| 67> %pal nprocs=16 end
| 68> %geom maxiter=150 end
| 69> %base "deprotonated"
| 70> *xyz -1 2
| 71>   O   2.26407286979171     -1.92662253038609      0.00181455078392
| 72>   O   3.23460543214358      0.71945220080410     -0.53503028500803
| 73>   N   -3.06809047556613      0.39826797937105     -1.33455325117501
| 74>   C   -2.18952361654168     -0.15256021569861      0.99328292339991
| 75>   C   -0.74403941266594      0.08380334776518      0.64231483353858
| 76>   C   -3.04667325385693     -0.56248564471395     -0.22440590009680
| 77>   C   0.14536484358710     -0.99649211449877      0.49536188225263
| 78>   C   -0.25016261005577      1.36639391844137      0.37691430821063
| 79>   C   1.47063297633351     -0.81915330837172      0.10544128876545
| 80>   C   1.07671537630085      1.56091041807096     -0.01895224257422
| 81>   C   1.99104494709139      0.49296298068226     -0.17175695216987
| 82>   H   -2.61976481259760      0.76779699819230      1.42877638569231
| 83>   H   -2.27908612739388     -0.94032522288775      1.76397782806112
| 84>   H   -4.08851239600975     -0.74362699818862      0.09473093364893
| 85>   H   -2.66419464369923     -1.51773981527286     -0.62001580373582
| 86>   H   -0.19051325106317     -2.01902743495149      0.69508364605038
| 87>   H   -0.91097793400504      2.23203857087384      0.49159008839705
| 88>   H   1.45681142464043      2.56628582124083     -0.21537987608817
| 89>   H   -2.09180827170196      0.58860367729698     -1.58978917206766
| 90>   H   -3.41569114367042      1.29494629949009     -0.97891189386820
| 91>   H   3.17515892822914     -1.61785123581718     -0.28425270391130
| 92>   Cu  4.74513994170983     -0.40213816044191     -0.88307005210584
| 93> *
| 94> 
| 95> $new_job
| 96> 
| 97> ! PBE D3 def2-TZVP opt numfreq PModel NOAUTOSTART
| 98> %pal nprocs=16 end
| 99> %geom maxiter=150 end
|100> %base "2x_deprotonated"
|101> *xyz -2 2
|102>   O   -2.27462808444851     -1.99334039987207      0.21999816480273
|103>   O   -3.32344020077683      0.45199276397836     -0.54100350986086
|104>   N   2.94404356580091      0.32845787215290     -1.41506916551770
|105>   C   2.14879825554637      0.03709382582384      0.97975452479725
|106>   C   0.69112442911699      0.16878494908694      0.62895259702229
|107>   C   3.01092065450881     -0.48923606583347     -0.18965960064648
|108>   C   -0.14894595870056     -0.97296768583966      0.60815035257795
|109>   C   0.14684994179989      1.40073748766217      0.24472932477766
|110>   C   -1.51076530940791     -0.94000683925795      0.22154345552623
|111>   C   -1.20443554838711      1.48948301342124     -0.15479109743466
|112>   C   -2.07353587676800      0.37155285979844     -0.18723263019669
|113>   H   2.55247522872650      1.02563762437593      1.28131869985491
|114>   H   2.29255333241014     -0.64494421394126      1.84460605088237
|115>   H   2.66437451733546     -1.50325189113951     -0.44947784006715
|116>   H   4.07400695464093     -0.57351048955685      0.11516693898683
|117>   H   0.25586294768499     -1.94827956040401      0.91275084405010
|118>   H   0.77485442860934      2.30221967080657      0.27130012939103
|119>   H   -1.63193041217899      2.45855103513937     -0.44121731510175
|120>   H   3.22839027315037      1.28099549119824     -1.15116467416256
|121>   H   1.93455968270284      0.44309976352690     -1.59613581695961
|122>   Cu  -4.21500262536565     -1.45033192312612     -0.41068221272187
|123> *
|124> 
|125> $new_job
|126> 
|127> ! PBE D3 def2-TZVP opt numfreq PModel NOAUTOSTART
|128> %pal nprocs=16 end
|129> %geom maxiter=150 end
|130> %base "zwitterione"
|131> *xyz 0 2
|132>   O   2.31917491475132     -2.05753028691037      1.04629610930313
|133>   C   1.66124614189752     -0.88562840787774      0.96106715343492
|134>   C   0.26627064325224     -0.92245924305218      0.85265492622958
|135>   C   -0.52271897428726      0.26271030617944      0.80480352827461
|136>   C   -1.94503884151791      0.15196986637482      0.33614186808179
|137>   C   -1.95658150748282      0.22206804511494     -1.20968846524578
|138>   N   -0.84805286846869     -0.66196355771812     -1.73351824531888
|139>   H   -0.38305554067810     -0.28145023969160     -2.56340925539459
|140>   H   -0.13157734416091     -0.73654017533106     -0.89864281278687
|141>   H   -1.17224276816989     -1.61172242725054     -1.94598000868789
|142>   C   0.14653166721564      1.48976951192571      0.84199048196669
|143>   C   1.53722469392677      1.54183972098385      0.94142709165494
|144>   C   2.35984525045839      0.38428563303677      0.97728985273790
|145>   O   3.65001273278982      0.47570113279582      1.04844426727206
|146>   H   3.31934830614004     -1.87057786194817      1.03190334618141
|147>   H   -0.21815166561429     -1.90381227223127      0.91777526960406
|148>   H   -2.40739490126261     -0.79159695596336      0.66948363361039
|149>   H   -2.57598362655206      0.97425275471558      0.70404055526725
|150>   H   -2.90490138332628     -0.09205532392161     -1.66883823686220
|151>   H   -1.71614037125286      1.24100994917188     -1.53477774941847
|152>   H   -0.42458988430754      2.42121427261265      0.78402784134147
|153>   H   2.05090321496868      2.50370619989226      0.99019117395316
|154>   Cu  5.03813807068079     -0.85171966990770      0.74222131880135
|155> *
|156> 
|157>                          ****END OF INPUT****
================================================================================


                 $$$$$$$$$$$$$$$$$$$$$$$$$$$$$$$$$$$$$$$$$$$$$$ 
                 $ THERE ARE  5 JOBS TO BE PROCESSED THIS RUN $
                 $$$$$$$$$$$$$$$$$$$$$$$$$$$$$$$$$$$$$$$$$$$$$$ 




                 $$$$$$$$$$$$$$$$  JOB NUMBER  1 $$$$$$$$$$$$$$


                       *****************************
                       * Geometry Optimization Run *
                       *****************************

Geometry optimization settings:
Update method            Update   .... BFGS
Choice of coordinates    CoordSys .... Z-matrix Internals
Initial Hessian          InHess   .... Almoef's Model

Convergence Tolerances:
Energy Change            TolE     ....  5.0000e-06 Eh
Max. Gradient            TolMAXG  ....  3.0000e-04 Eh/bohr
RMS Gradient             TolRMSG  ....  1.0000e-04 Eh/bohr
Max. Displacement        TolMAXD  ....  4.0000e-03 bohr
RMS Displacement         TolRMSD  ....  2.0000e-03 bohr
Strict Convergence                ....  False
------------------------------------------------------------------------------
                        ORCA OPTIMIZATION COORDINATE SETUP
------------------------------------------------------------------------------

The optimization will be done in new redundant internal coordinates
Making redundant internal coordinates   ...  (new redundants) done
Evaluating the initial hessian          ...  (Almloef) done
Evaluating the coordinates              ...  done
Calculating the B-matrix                .... done
Calculating the G-matrix                .... done
Diagonalizing the G-matrix              .... done
Small eigenvalue found = 1.329e-02
Small eigenvalue found = 2.581e-02
The first mode is                       ....   48
The number of degrees of freedom        ....   63

    -----------------------------------------------------------------
                    Redundant Internal Coordinates


    -----------------------------------------------------------------
         Definition                    Initial Value    Approx d2E/dq
    -----------------------------------------------------------------
      1. B(C   2,C   0)                  1.3917         0.620920   
      2. B(C   3,C   0)                  1.4013         0.599400   
      3. B(C   4,C   3)                  1.4018         0.598327   
      4. B(C   4,C   1)                  1.3931         0.617627   
      5. B(C   5,C   2)                  1.4042         0.593028   
      6. B(C   5,C   1)                  1.3981         0.606430   
      7. B(O   6,C   5)                  1.3629         0.618090   
      8. B(O   7,C   2)                  1.3982         0.543055   
      9. B(C   8,C   3)                  1.5076         0.405571   
     10. B(C   9,C   8)                  1.5364         0.364869   
     11. B(N  10,C   9)                  1.4664         0.422598   
     12. B(H  11,C   0)                  1.0943         0.354422   
     13. B(H  12,C   1)                  1.0907         0.359174   
     14. B(H  13,C   4)                  1.0920         0.357463   
     15. B(H  14,O   6)                  0.9898         0.466085   
     16. B(H  15,O   7)                  0.9761         0.490007   
     17. B(H  16,C   8)                  1.1013         0.345498   
     18. B(H  17,C   8)                  1.1006         0.346349   
     19. B(H  18,C   9)                  1.1014         0.345376   
     20. B(H  19,C   9)                  1.1093         0.335413   
     21. B(H  20,N  10)                  1.0233         0.412086   
     22. B(H  21,N  10)                  1.0214         0.414919   
     23. B(Cu 22,O   7)                  2.2649         0.227600   
     24. A(C   3,C   0,H  11)          119.4523         0.349958   
     25. A(C   2,C   0,H  11)          119.5582         0.352050   
     26. A(C   2,C   0,C   3)          120.9803         0.431552   
     27. A(C   5,C   1,H  12)          117.9003         0.351437   
     28. A(C   4,C   1,H  12)          121.1842         0.352526   
     29. A(C   4,C   1,C   5)          120.9131         0.432044   
     30. A(C   5,C   2,O   7)          117.1395         0.417788   
     31. A(C   0,C   2,C   5)          121.1681         0.430724   
     32. A(C   0,C   2,O   7)          121.6900         0.421226   
     33. A(C   4,C   3,C   8)          121.4691         0.399946   
     34. A(C   0,C   3,C   8)          120.7248         0.400072   
     35. A(C   0,C   3,C   4)          117.7475         0.428690   
     36. A(C   1,C   4,C   3)          121.3078         0.431001   
     37. A(C   3,C   4,H  13)          119.4493         0.350357   
     38. A(C   1,C   4,H  13)          119.2402         0.352242   
     39. A(C   1,C   5,O   6)          118.8116         0.429279   
     40. A(C   1,C   5,C   2)          117.8737         0.428903   
     41. A(C   2,C   5,O   6)          123.3127         0.427562   
     42. A(C   5,O   6,H  14)          109.9198         0.363051   
     43. A(C   2,O   7,H  15)          108.6751         0.358171   
     44. A(H  15,O   7,Cu 22)          108.4053         0.344948   
     45. A(C   2,O   7,Cu 22)          124.5863         0.392946   
     46. A(C   9,C   8,H  17)          108.3196         0.321013   
     47. A(C   3,C   8,C   9)          112.4920         0.367015   
     48. A(C   3,C   8,H  17)          109.9714         0.326633   
     49. A(H  16,C   8,H  17)          107.6260         0.287203   
     50. A(C   9,C   8,H  16)          108.6009         0.320883   
     51. A(C   3,C   8,H  16)          109.6961         0.326501   
     52. A(N  10,C   9,H  19)          113.8998         0.325161   
     53. A(C   8,C   9,H  19)          108.5188         0.319334   
     54. A(N  10,C   9,H  18)          108.0201         0.326730   
     55. A(C   8,C   9,H  18)          108.7054         0.320865   
     56. A(C   8,C   9,N  10)          110.4623         0.367305   
     57. A(H  18,C   9,H  19)          107.0723         0.285753   
     58. A(H  20,N  10,H  21)          106.4959         0.298898   
     59. A(C   9,N  10,H  21)          110.1799         0.333921   
     60. A(C   9,N  10,H  20)          109.3239         0.333542   
     61. D(O   7,C   2,C   0,C   3)   -178.3120         0.026683   
     62. D(O   7,C   2,C   0,H  11)      0.5799         0.026683   
     63. D(C   5,C   2,C   0,C   3)      1.1026         0.026683   
     64. D(C   5,C   2,C   0,H  11)    179.9945         0.026683   
     65. D(C   8,C   3,C   0,H  11)     -2.0404         0.024765   
     66. D(C   8,C   3,C   0,C   2)    176.8526         0.024765   
     67. D(C   4,C   3,C   0,C   2)     -0.4031         0.024765   
     68. D(C   4,C   3,C   0,H  11)   -179.2961         0.024765   
     69. D(H  13,C   4,C   1,C   5)    179.8466         0.026384   
     70. D(H  13,C   4,C   1,H  12)      0.4180         0.026384   
     71. D(C   1,C   4,C   3,C   0)     -0.3639         0.024672   
     72. D(C   1,C   4,C   3,C   8)   -177.5980         0.024672   
     73. D(H  13,C   4,C   3,C   0)   -179.7591         0.024672   
     74. D(C   3,C   4,C   1,H  12)   -178.9785         0.026384   
     75. D(C   3,C   4,C   1,C   5)      0.4501         0.026384   
     76. D(H  13,C   4,C   3,C   8)      3.0068         0.024672   
     77. D(O   6,C   5,C   2,O   7)     -1.0423         0.024214   
     78. D(O   6,C   5,C   2,C   0)    179.5175         0.024214   
     79. D(C   1,C   5,C   2,O   7)    178.4434         0.024214   
     80. D(O   6,C   5,C   1,H  12)     -0.8144         0.025382   
     81. D(C   1,C   5,C   2,C   0)     -0.9968         0.024214   
     82. D(O   6,C   5,C   1,C   4)    179.7388         0.025382   
     83. D(C   2,C   5,C   1,H  12)    179.6761         0.025382   
     84. D(C   2,C   5,C   1,C   4)      0.2293         0.025382   
     85. D(H  14,O   6,C   5,C   2)    -11.8817         0.028016   
     86. D(H  14,O   6,C   5,C   1)    168.6372         0.028016   
     87. D(Cu 22,O   7,C   2,C   5)     47.2192         0.023474   
     88. D(Cu 22,O   7,C   2,C   0)   -133.3437         0.023474   
     89. D(H  15,O   7,C   2,C   5)    176.8529         0.023474   
     90. D(H  15,O   7,C   2,C   0)     -3.7100         0.023474   
     91. D(C   9,C   8,C   3,C   0)    -92.7896         0.012193   
     92. D(H  17,C   8,C   3,C   4)   -154.8114         0.012193   
     93. D(H  17,C   8,C   3,C   0)     28.0362         0.012193   
     94. D(H  16,C   8,C   3,C   4)    -36.6285         0.012193   
     95. D(H  16,C   8,C   3,C   0)    146.2191         0.012193   
     96. D(C   9,C   8,C   3,C   4)     84.3628         0.012193   
     97. D(H  19,C   9,C   8,H  17)    174.6210         0.010661   
     98. D(H  19,C   9,C   8,H  16)     58.0068         0.010661   
     99. D(H  19,C   9,C   8,C   3)    -63.6099         0.010661   
    100. D(H  18,C   9,C   8,H  17)     58.4987         0.010661   
    101. D(H  18,C   9,C   8,H  16)    -58.1155         0.010661   
    102. D(H  18,C   9,C   8,C   3)   -179.7322         0.010661   
    103. D(N  10,C   9,C   8,H  17)    -59.8565         0.010661   
    104. D(N  10,C   9,C   8,H  16)   -176.4706         0.010661   
    105. D(N  10,C   9,C   8,C   3)     61.9126         0.010661   
    106. D(H  21,N  10,C   9,H  19)    -62.0285         0.015227   
    107. D(H  21,N  10,C   9,H  18)     56.7766         0.015227   
    108. D(H  21,N  10,C   9,C   8)    175.5496         0.015227   
    109. D(H  20,N  10,C   9,H  19)     54.6803         0.015227   
    110. D(H  20,N  10,C   9,H  18)    173.4854         0.015227   
    111. D(H  20,N  10,C   9,C   8)    -67.7417         0.015227   
    -----------------------------------------------------------------

Number of atoms                         .... 23
Number of degrees of freedom            .... 111

         *************************************************************
         *                GEOMETRY OPTIMIZATION CYCLE   1            *
         *************************************************************
---------------------------------
CARTESIAN COORDINATES (ANGSTROEM)
---------------------------------
  C     -0.021404   -0.809402   -0.447082
  C     -1.172650    1.632361    0.210889
  C     -1.336068   -0.753771    0.006101
  C      0.749360    0.354500   -0.569092
  C      0.148335    1.574042   -0.227794
  C     -1.940606    0.470524    0.333864
  O     -3.226768    0.576625    0.772190
  O     -2.107179   -1.908989    0.166521
  C      2.194257    0.280588   -0.993068
  C      3.154719    0.203044    0.203628
  N      2.902925   -1.011955    0.985173
  H      0.423633   -1.777929   -0.694968
  H     -1.643444    2.584109    0.460200
  H      0.722352    2.498788   -0.316194
  H     -3.700732   -0.281835    0.637814
  H     -1.588526   -2.676309   -0.141840
  H      2.450997    1.167949   -1.592625
  H      2.355870   -0.606333   -1.624391
  H      4.187870    0.156531   -0.175107
  H      3.064432    1.140882    0.789228
  H      1.987382   -0.940518    1.436620
  H      3.590533   -1.096961    1.735695
  Cu    -4.237381   -2.144814   -0.565831

----------------------------
CARTESIAN COORDINATES (A.U.)
----------------------------
  NO LB      ZA    FRAG     MASS         X           Y           Z
   0 C     6.0000    0    12.011   -0.040447   -1.529548   -0.844862
   1 C     6.0000    0    12.011   -2.215987    3.084714    0.398522
   2 C     6.0000    0    12.011   -2.524804   -1.424421    0.011529
   3 C     6.0000    0    12.011    1.416084    0.669908   -1.075427
   4 C     6.0000    0    12.011    0.280312    2.974508   -0.430468
   5 C     6.0000    0    12.011   -3.667214    0.889161    0.630912
   6 O     8.0000    0    15.999   -6.097708    1.089664    1.459228
   7 O     8.0000    0    15.999   -3.981990   -3.607467    0.314680
   8 C     6.0000    0    12.011    4.146545    0.530235   -1.876626
   9 C     6.0000    0    12.011    5.961555    0.383698    0.384802
  10 N     7.0000    0    14.007    5.485734   -1.912317    1.861706
  11 H     1.0000    0     1.008    0.800550   -3.359800   -1.313299
  12 H     1.0000    0     1.008   -3.105658    4.883259    0.869652
  13 H     1.0000    0     1.008    1.365048    4.722024   -0.597519
  14 H     1.0000    0     1.008   -6.993370   -0.532590    1.205294
  15 H     1.0000    0     1.008   -3.001880   -5.057491   -0.268039
  16 H     1.0000    0     1.008    4.631714    2.207103   -3.009625
  17 H     1.0000    0     1.008    4.451950   -1.145804   -3.069654
  18 H     1.0000    0     1.008    7.913927    0.295801   -0.330904
  19 H     1.0000    0     1.008    5.790938    2.155954    1.491426
  20 H     1.0000    0     1.008    3.755608   -1.777321    2.714818
  21 H     1.0000    0     1.008    6.785124   -2.072955    3.279989
  22 Cu   29.0000    0    63.550   -8.007491   -4.053111   -1.069266

--------------------------------
INTERNAL COORDINATES (ANGSTROEM)
--------------------------------
 C      0   0   0     0.000000000000     0.00000000     0.00000000
 C      1   0   0     2.778578473343     0.00000000     0.00000000
 C      1   2   0     1.391694340276    59.75922378     0.00000000
 C      1   2   3     1.401296064286    61.22359666   180.57652177
 C      2   1   3     1.393141736708    59.72028949   179.24010341
 C      2   1   3     1.398121973298    61.19332221   359.49666436
 O      6   2   1     1.362937835014   118.81164287   179.99699413
 O      3   1   2     1.398168176716   121.68997547   181.09861227
 C      4   1   2     1.507630007626   120.72478821   177.43355360
 C      9   4   1     1.536418443524   112.49198926   267.21044167
 N     10   9   4     1.466435861814   110.46229235    61.91263399
 H      1   2   3     1.094326273661   179.18263155   326.49340662
 H      2   1   3     1.090700970217   178.84614934   321.07105161
 H      5   2   1     1.092000586061   119.24018302   179.58452085
 H      7   6   2     0.989773663937   109.91978994   168.63718140
 H      8   3   1     0.976148971580   108.67506608   356.29003253
 H      9   4   1     1.101268460605   109.69610464   146.21907696
 H      9   4   1     1.100598703677   109.97141426    28.03620502
 H     10   9   4     1.101364566863   108.70536795   180.26777954
 H     10   9   4     1.109332314510   108.51882269   296.39011214
 H     11  10   9     1.023292266046   109.32388439   292.25832361
 H     11  10   9     1.021427566536   110.17985332   175.54957969
 Cu     8   3   1     2.264888138193   124.58632890   226.65629582

---------------------------
INTERNAL COORDINATES (A.U.)
---------------------------
 C      0   0   0     0.000000000000     0.00000000     0.00000000
 C      1   0   0     5.250752356227     0.00000000     0.00000000
 C      1   2   0     2.629921165251    59.75922378     0.00000000
 C      1   2   3     2.648065794042    61.22359666   180.57652177
 C      2   1   3     2.632656348113    59.72028949   179.24010341
 C      2   1   3     2.642067631351    61.19332221   359.49666436
 O      6   2   1     2.575579245737   118.81164287   179.99699413
 O      3   1   2     2.642154943158   121.68997547   181.09861227
 C      4   1   2     2.849007825695   120.72478821   177.43355360
 C      9   4   1     2.903410085367   112.49198926   267.21044167
 N     10   9   4     2.771162171789   110.46229235    61.91263399
 H      1   2   3     2.067976958373   179.18263155   326.49340662
 H      2   1   3     2.061126127712   178.84614934   321.07105161
 H      5   2   1     2.063582045736   119.24018302   179.58452085
 H      7   6   2     1.870401159409   109.91978994   168.63718140
 H      8   3   1     1.844654222195   108.67506608   356.29003253
 H      9   4   1     2.081095790468   109.69610464   146.21907696
 H      9   4   1     2.079830133299   109.97141426    28.03620502
 H     10   9   4     2.081277404976   108.70536795   180.26777954
 H     10   9   4     2.096334265933   108.51882269   296.39011214
 H     11  10   9     1.933742137786   109.32388439   292.25832361
 H     11  10   9     1.930218366390   110.17985332   175.54957969
 Cu     8   3   1     4.280018305151   124.58632890   226.65629582

---------------------
BASIS SET INFORMATION
---------------------
There are 5 groups of distinct atoms

 Group   1 Type C   : 11s6p2d1f contracted to 5s3p2d1f pattern {62111/411/11/1}
 Group   2 Type O   : 11s6p2d1f contracted to 5s3p2d1f pattern {62111/411/11/1}
 Group   3 Type N   : 11s6p2d1f contracted to 5s3p2d1f pattern {62111/411/11/1}
 Group   4 Type H   : 5s1p contracted to 3s1p pattern {311/1}
 Group   5 Type Cu  : 17s11p7d1f contracted to 6s4p4d1f pattern {842111/6311/4111/1}

Atom   0C    basis set group =>   1
Atom   1C    basis set group =>   1
Atom   2C    basis set group =>   1
Atom   3C    basis set group =>   1
Atom   4C    basis set group =>   1
Atom   5C    basis set group =>   1
Atom   6O    basis set group =>   2
Atom   7O    basis set group =>   2
Atom   8C    basis set group =>   1
Atom   9C    basis set group =>   1
Atom  10N    basis set group =>   3
Atom  11H    basis set group =>   4
Atom  12H    basis set group =>   4
Atom  13H    basis set group =>   4
Atom  14H    basis set group =>   4
Atom  15H    basis set group =>   4
Atom  16H    basis set group =>   4
Atom  17H    basis set group =>   4
Atom  18H    basis set group =>   4
Atom  19H    basis set group =>   4
Atom  20H    basis set group =>   4
Atom  21H    basis set group =>   4
Atom  22Cu   basis set group =>   5
---------------------------------
AUXILIARY/J BASIS SET INFORMATION
---------------------------------
There are 5 groups of distinct atoms

 Group   1 Type C   : 12s5p4d2f1g contracted to 6s4p3d1f1g pattern {711111/2111/211/2/1}
 Group   2 Type O   : 12s5p4d2f1g contracted to 6s4p3d1f1g pattern {711111/2111/211/2/1}
 Group   3 Type N   : 12s5p4d2f1g contracted to 6s4p3d1f1g pattern {711111/2111/211/2/1}
 Group   4 Type H   : 5s2p1d contracted to 3s1p1d pattern {311/2/1}
 Group   5 Type Cu  : 19s5p5d3f3g contracted to 8s5p4d3f3g pattern {121111111/11111/2111/111/111}

Atom   0C    basis set group =>   1
Atom   1C    basis set group =>   1
Atom   2C    basis set group =>   1
Atom   3C    basis set group =>   1
Atom   4C    basis set group =>   1
Atom   5C    basis set group =>   1
Atom   6O    basis set group =>   2
Atom   7O    basis set group =>   2
Atom   8C    basis set group =>   1
Atom   9C    basis set group =>   1
Atom  10N    basis set group =>   3
Atom  11H    basis set group =>   4
Atom  12H    basis set group =>   4
Atom  13H    basis set group =>   4
Atom  14H    basis set group =>   4
Atom  15H    basis set group =>   4
Atom  16H    basis set group =>   4
Atom  17H    basis set group =>   4
Atom  18H    basis set group =>   4
Atom  19H    basis set group =>   4
Atom  20H    basis set group =>   4
Atom  21H    basis set group =>   4
Atom  22Cu   basis set group =>   5


           ************************************************************
           *        Program running with 16 parallel MPI-processes    *
           *              working on a common directory               *
           ************************************************************
------------------------------------------------------------------------------
                           ORCA GTO INTEGRAL CALCULATION
                           -- RI-GTO INTEGRALS CHOSEN --
------------------------------------------------------------------------------
------------------------------------------------------------------------------
                   ___                                                        
                  /   \      - P O W E R E D   B Y -                         
                 /     \                                                     
                 |  |  |   _    _      __       _____    __    __             
                 |  |  |  | |  | |    /  \     |  _  \  |  |  /  |          
                  \  \/   | |  | |   /    \    | | | |  |  | /  /          
                 / \  \   | |__| |  /  /\  \   | |_| |  |  |/  /          
                |  |  |   |  __  | /  /__\  \  |    /   |      \           
                |  |  |   | |  | | |   __   |  |    \   |  |\   \          
                \     /   | |  | | |  |  |  |  | |\  \  |  | \   \       
                 \___/    |_|  |_| |__|  |__|  |_| \__\ |__|  \__/        
                                                                              
                      - O R C A' S   B I G   F R I E N D -                    
                                      &                                       
                       - I N T E G R A L  F E E D E R -                       
                                                                              
 v1 FN, 2020, v2 2021                                                         
------------------------------------------------------------------------------


Reading SHARK input file neutral.SHARKINP.tmp ... ok
----------------------
SHARK INTEGRAL PACKAGE
----------------------

Number of atoms                             ...     23
Number of basis functions                   ...    452
Number of shells                            ...    180
Maximum angular momentum                    ...      3
Integral batch strategy                     ... SHARK/LIBINT Hybrid
RI-J (if used) integral strategy            ... SPLIT-RIJ (Revised 2003 algorithm where possible)
Printlevel                                  ...      1
Contraction scheme used                     ... SEGMENTED contraction
Coulomb Range Separation                    ... NOT USED
Exchange Range Separation                   ... NOT USED
Finite Nucleus Model                        ... NOT USED
Auxiliary Coulomb fitting basis             ... AVAILABLE
   # of basis functions in Aux-J            ...    751
   # of shells in Aux-J                     ...    243
   Maximum angular momentum in Aux-J        ...      4
Auxiliary J/K fitting basis                 ... NOT available
Auxiliary Correlation fitting basis         ... NOT available
Auxiliary 'external' fitting basis          ... NOT available
Integral threshold                          ...     2.500000e-11
Primitive cut-off                           ...     2.500000e-12
Primitive pair pre-selection threshold      ...     2.500000e-12

Calculating pre-screening integrals         ... done (  0.1 sec) Dimension = 180
Organizing shell pair data                  ... done (  0.3 sec)
Shell pair information
Total number of shell pairs                 ...     16290
Shell pairs after pre-screening             ...     13329
Total number of primitive shell pairs       ...     52337
Primitive shell pairs kept                  ...     29566
          la=0 lb=0:   3564 shell pairs
          la=1 lb=0:   3754 shell pairs
          la=1 lb=1:   1011 shell pairs
          la=2 lb=0:   1979 shell pairs
          la=2 lb=1:   1057 shell pairs
          la=2 lb=2:    291 shell pairs
          la=3 lb=0:    880 shell pairs
          la=3 lb=1:    478 shell pairs
          la=3 lb=2:    252 shell pairs
          la=3 lb=3:     63 shell pairs

Calculating one electron integrals          ... done (  0.0 sec)
Calculating RI/J V-Matrix + Cholesky decomp.... done (  0.0 sec)
Calculating Nuclear repulsion               ... done (  0.0 sec) ENN=    893.160610215416 Eh

SHARK setup successfully completed in   0.8 seconds

Maximum memory used throughout the entire GTOINT-calculation: 29.7 MB


           ************************************************************
           *        Program running with 16 parallel MPI-processes    *
           *              working on a common directory               *
           ************************************************************
-------------------------------------------------------------------------------
                                 ORCA SCF
-------------------------------------------------------------------------------

------------
SCF SETTINGS
------------
Hamiltonian:
 Density Functional     Method          .... DFT(GTOs)
 Exchange Functional    Exchange        .... PBE
   PBE kappa parameter   XKappa         ....  0.804000
   PBE mue parameter    XMuePBE         ....  0.219520
 Correlation Functional Correlation     .... PBE
   PBE beta parameter  CBetaPBE         ....  0.066725
 LDA part of GGA corr.  LDAOpt          .... PW91-LDA
 Gradients option       PostSCFGGA      .... off
   Density functional embedding theory  .... OFF
   NL short-range parameter             ....  6.400000
 RI-approximation to the Coulomb term is turned on
   Number of AuxJ basis functions       .... 751


General Settings:
 Integral files         IntName         .... neutral
 Hartree-Fock type      HFTyp           .... UHF
 Total Charge           Charge          ....    0
 Multiplicity           Mult            ....    2
 Number of Electrons    NEL             ....  111
 Basis Dimension        Dim             ....  452
 Nuclear Repulsion      ENuc            ....    893.1606102154 Eh

Convergence Acceleration:
 DIIS                   CNVDIIS         .... on
   Start iteration      DIISMaxIt       ....    12
   Startup error        DIISStart       ....  0.200000
   # of expansion vecs  DIISMaxEq       ....     5
   Bias factor          DIISBfac        ....   1.050
   Max. coefficient     DIISMaxC        ....  10.000
 Trust-Rad. Augm. Hess. CNVTRAH         .... auto
   Auto Start mean grad. ratio tolernc. ....  1.125000
   Auto Start start iteration           ....    20
   Auto Start num. interpolation iter.  ....    10
   Max. Number of Micro iterations      ....    16
   Max. Number of Macro iterations      .... Maxiter - #DIIS iter
   Number of Davidson start vectors     ....     2
   Converg. threshold I  (grad. norm)   ....   1.000e-05
   Converg. threshold II (energy diff.) ....   1.000e-08
   Grad. Scal. Fac. for Micro threshold ....   0.100
   Minimum threshold for Micro iter.    ....   0.010
   NR start threshold (gradient norm)   ....   0.001
   Initial trust radius                 ....   0.400
   Minimum AH scaling param. (alpha)    ....   1.000
   Maximum AH scaling param. (alpha)    .... 1000.000
   Orbital update algorithm             .... Taylor
   White noise on init. David. guess    .... on
   Maximum white noise                  ....   0.010
   Quad. conv. algorithm                .... NR
 SOSCF                  CNVSOSCF        .... off
 Level Shifting         CNVShift        .... on
   Level shift para.    LevelShift      ....    0.2500
   Turn off err/grad.   ShiftErr        ....    0.0010
 Zerner damping         CNVZerner       .... off
 Static damping         CNVDamp         .... on
   Fraction old density DampFac         ....    0.7000
   Max. Damping (<1)    DampMax         ....    0.9800
   Min. Damping (>=0)   DampMin         ....    0.0000
   Turn off err/grad.   DampErr         ....    0.1000
 Fernandez-Rico         CNVRico         .... off

SCF Procedure:
 Maximum # iterations   MaxIter         ....   125
 SCF integral mode      SCFMode         .... Direct
   Integral package                     .... SHARK and LIBINT hybrid scheme
 Reset frequency        DirectResetFreq ....    20
 Integral Threshold     Thresh          ....  2.500e-11 Eh
 Primitive CutOff       TCut            ....  2.500e-12 Eh

Convergence Tolerance:
 Convergence Check Mode ConvCheckMode   .... Total+1el-Energy
 Convergence forced     ConvForced      .... 0
 Energy Change          TolE            ....  1.000e-08 Eh
 1-El. energy change                    ....  1.000e-05 Eh
 DIIS Error             TolErr          ....  5.000e-07


Diagonalization of the overlap matrix:
Smallest eigenvalue                        ... 8.678e-06
Time for diagonalization                   ...    0.046 sec
Threshold for overlap eigenvalues          ... 1.000e-08
Number of eigenvalues below threshold      ... 0
Time for construction of square roots      ...    0.029 sec
Total time needed                          ...    0.076 sec

Time for model grid setup =    0.143 sec

------------------------------
INITIAL GUESS: MODEL POTENTIAL
------------------------------
Loading Hartree-Fock densities                     ... done
Calculating cut-offs                               ... done
Initializing the effective Hamiltonian             ... done
Setting up the integral package (SHARK)            ... done
Starting the Coulomb interaction                   ... done (   0.1 sec)
Reading the grid                                   ... done
Mapping shells                                     ... done
Starting the XC term evaluation                    ... done (   0.2 sec)
  promolecular density results
     # of electrons  =    111.003879926
     EX              =   -132.492275473
     EC              =     -4.087760043
     EX+EC           =   -136.580035516
Transforming the Hamiltonian                       ... done (   0.1 sec)
Diagonalizing the Hamiltonian                      ... done (   0.0 sec)
Back transforming the eigenvectors                 ... done (   0.0 sec)
Now organizing SCF variables                       ... done
                      ------------------
                      INITIAL GUESS DONE (   0.6 sec)
                      ------------------
-------------------
DFT GRID GENERATION
-------------------

General Integration Accuracy     IntAcc      ... 4.388
Radial Grid Type                 RadialGrid  ... OptM3 with GC (2021)
Angular Grid (max. ang.)         AngularGrid ... 4 (Lebedev-302)
Angular grid pruning method      GridPruning ... 4 (adaptive)
Weight generation scheme         WeightScheme... Becke
Basis function cutoff            BFCut       ... 1.0000e-11
Integration weight cutoff        WCut        ... 1.0000e-14
Angular grids for H and He will be reduced by one unit
Partially contracted basis set               ... off
Rotationally invariant grid construction     ... off

Total number of grid points                  ...   112417
Total number of batches                      ...     1767
Average number of points per batch           ...       63
Average number of grid points per atom       ...     4888
Time for grid setup =    0.820 sec

--------------
SCF ITERATIONS
--------------
ITER       Energy         Delta-E        Max-DP      RMS-DP      [F,P]     Damp
               ***  Starting incremental Fock matrix formation  ***
  0  -2156.1360563999   0.000000000000 0.14980223  0.00113293  0.2526172 0.7000
  1  -2156.3103602222  -0.174303822318 0.13309694  0.00104125  0.0950701 0.7000
                               ***Turning on DIIS***
  2  -2156.3683878901  -0.058027667843 0.18404938  0.00155047  0.0478479 0.0000
  3  -2156.4652187334  -0.096830843372 0.11758427  0.00085407  0.0959112 0.0000
  4  -2156.4938992819  -0.028680548415 0.04501193  0.00035775  0.0157316 0.0000
  5  -2156.4957527680  -0.001853486154 0.02265273  0.00017444  0.0048582 0.0000
  6  -2156.4958927264  -0.000139958390 0.00751351  0.00006115  0.0019211 0.0000
  7  -2156.4959063691  -0.000013642655 0.00475831  0.00004580  0.0008612 0.0000
  8  -2156.4959119570  -0.000005587991 0.00044785  0.00000336  0.0016892 0.0000
  9  -2156.4959141751  -0.000002218004 0.00056213  0.00000419  0.0009030 0.0000
 10  -2156.4959148402  -0.000000665099 0.00021767  0.00000172  0.0002259 0.0000
 11  -2156.4959149608  -0.000000120651 0.00011398  0.00000072  0.0000700 0.0000
 12  -2156.4959150039  -0.000000043138 0.00007994  0.00000073  0.0000454 0.0000
 13  -2156.4959150094  -0.000000005444 0.00008670  0.00000070  0.0000425 0.0000
 14  -2156.4959150148  -0.000000005402 0.00008028  0.00000061  0.0000206 0.0000
 15  -2156.4959150027   0.000000012076 0.00005385  0.00000042  0.0000052 0.0000
 16  -2156.4959150109  -0.000000008167 0.00009140  0.00000080  0.0000055 0.0000
 17  -2156.4959150074   0.000000003452 0.00002628  0.00000020  0.0000035 0.0000
                 **** Energy Check signals convergence ****

               *****************************************************
               *                     SUCCESS                       *
               *           SCF CONVERGED AFTER  18 CYCLES          *
               *****************************************************


----------------
TOTAL SCF ENERGY
----------------

Total Energy       :        -2156.49591500 Eh          -58681.23714 eV

Components:
Nuclear Repulsion  :          893.16061022 Eh           24304.13580 eV
Electronic Energy  :        -3049.65652522 Eh          -82985.37295 eV
One Electron Energy:        -4764.33146095 Eh         -129644.05003 eV
Two Electron Energy:         1714.67493574 Eh           46658.67708 eV

Virial components:
Potential Energy   :        -4308.27617529 Eh         -117234.15480 eV
Kinetic Energy     :         2151.78026029 Eh           58552.91766 eV
Virial Ratio       :            2.00219151


DFT components:
N(Alpha)           :       55.999955076974 electrons
N(Beta)            :       54.999982610010 electrons
N(Total)           :      110.999937686984 electrons
E(X)               :     -133.846892312177 Eh       
E(C)               :       -4.092778201723 Eh       
E(XC)              :     -137.939670513899 Eh       
DFET-embed. en.    :        0.000000000000 Eh       

---------------
SCF CONVERGENCE
---------------

  Last Energy change         ...    4.8403e-09  Tolerance :   1.0000e-08
  Last MAX-Density change    ...    3.5256e-05  Tolerance :   1.0000e-07
  Last RMS-Density change    ...    4.1399e-07  Tolerance :   5.0000e-09
  Last DIIS Error            ...    6.5328e-07  Tolerance :   5.0000e-07

             **** THE GBW FILE WAS UPDATED (neutral.gbw) ****
             **** DENSITY neutral.scfp WAS UPDATED ****
             **** ENERGY FILE WAS UPDATED (neutral.en.tmp) ****
----------------------
UHF SPIN CONTAMINATION
----------------------

Warning: in a DFT calculation there is little theoretical justification to 
         calculate <S**2> as in Hartree-Fock theory. We will do it anyways
         but you should keep in mind that the values have only limited relevance

Expectation value of <S**2>     :     0.751936
Ideal value S*(S+1) for S=0.5   :     0.750000
Deviation                       :     0.001936

             **** THE GBW FILE WAS UPDATED (neutral.gbw) ****
             **** DENSITY neutral.scfp WAS UPDATED ****
----------------
ORBITAL ENERGIES
----------------
                 SPIN UP ORBITALS
  NO   OCC          E(Eh)            E(eV) 
   0   1.0000    -321.487533     -8748.1205 
   1   1.0000     -38.251099     -1040.8653 
   2   1.0000     -33.542687      -912.7429 
   3   1.0000     -33.542238      -912.7307 
   4   1.0000     -33.541826      -912.7195 
   5   1.0000     -18.827242      -512.3153 
   6   1.0000     -18.784802      -511.1605 
   7   1.0000     -13.967840      -380.0842 
   8   1.0000      -9.958130      -270.9745 
   9   1.0000      -9.951381      -270.7908 
  10   1.0000      -9.910225      -269.6709 
  11   1.0000      -9.898879      -269.3622 
  12   1.0000      -9.898281      -269.3459 
  13   1.0000      -9.890642      -269.1380 
  14   1.0000      -9.889379      -269.1037 
  15   1.0000      -9.888856      -269.0895 
  16   1.0000      -4.083676      -111.1225 
  17   1.0000      -2.621493       -71.3345 
  18   1.0000      -2.619223       -71.2727 
  19   1.0000      -2.617102       -71.2150 
  20   1.0000      -1.008326       -27.4380 
  21   1.0000      -0.971311       -26.4307 
  22   1.0000      -0.810409       -22.0523 
  23   1.0000      -0.784340       -21.3430 
  24   1.0000      -0.707902       -19.2630 
  25   1.0000      -0.683985       -18.6122 
  26   1.0000      -0.648281       -17.6406 
  27   1.0000      -0.592005       -16.1093 
  28   1.0000      -0.569892       -15.5075 
  29   1.0000      -0.530308       -14.4304 
  30   1.0000      -0.511869       -13.9287 
  31   1.0000      -0.495710       -13.4889 
  32   1.0000      -0.448394       -12.2014 
  33   1.0000      -0.446265       -12.1435 
  34   1.0000      -0.423779       -11.5316 
  35   1.0000      -0.410229       -11.1629 
  36   1.0000      -0.401748       -10.9321 
  37   1.0000      -0.391814       -10.6618 
  38   1.0000      -0.389065       -10.5870 
  39   1.0000      -0.359433        -9.7807 
  40   1.0000      -0.352080        -9.5806 
  41   1.0000      -0.346210        -9.4208 
  42   1.0000      -0.340649        -9.2695 
  43   1.0000      -0.321318        -8.7435 
  44   1.0000      -0.311319        -8.4714 
  45   1.0000      -0.300023        -8.1640 
  46   1.0000      -0.291473        -7.9314 
  47   1.0000      -0.228950        -6.2301 
  48   1.0000      -0.206352        -5.6151 
  49   1.0000      -0.199333        -5.4241 
  50   1.0000      -0.199028        -5.4158 
  51   1.0000      -0.197068        -5.3625 
  52   1.0000      -0.195937        -5.3317 
  53   1.0000      -0.193819        -5.2741 
  54   1.0000      -0.191215        -5.2032 
  55   1.0000      -0.154652        -4.2083 
  56   0.0000      -0.047023        -1.2796 
  57   0.0000      -0.034411        -0.9364 
  58   0.0000      -0.026158        -0.7118 
  59   0.0000      -0.020337        -0.5534 
  60   0.0000       0.011033         0.3002 
  61   0.0000       0.026853         0.7307 
  62   0.0000       0.032030         0.8716 
  63   0.0000       0.037354         1.0165 
  64   0.0000       0.048456         1.3186 
  65   0.0000       0.058434         1.5901 
  66   0.0000       0.061919         1.6849 
  67   0.0000       0.072455         1.9716 
  68   0.0000       0.082269         2.2387 
  69   0.0000       0.094386         2.5684 
  70   0.0000       0.103250         2.8096 
  71   0.0000       0.108781         2.9601 
  72   0.0000       0.116572         3.1721 
  73   0.0000       0.122128         3.3233 
  74   0.0000       0.126140         3.4324 
  75   0.0000       0.132522         3.6061 
  76   0.0000       0.140837         3.8324 
  77   0.0000       0.149548         4.0694 
  78   0.0000       0.153820         4.1857 
  79   0.0000       0.160663         4.3719 
  80   0.0000       0.168134         4.5752 
  81   0.0000       0.176840         4.8121 
  82   0.0000       0.177969         4.8428 
  83   0.0000       0.188010         5.1160 
  84   0.0000       0.204932         5.5765 
  85   0.0000       0.215483         5.8636 
  86   0.0000       0.217677         5.9233 
  87   0.0000       0.228146         6.2082 
  88   0.0000       0.234327         6.3764 
  89   0.0000       0.245153         6.6710 
  90   0.0000       0.249224         6.7817 
  91   0.0000       0.256491         6.9795 
  92   0.0000       0.264423         7.1953 
  93   0.0000       0.266791         7.2598 
  94   0.0000       0.277945         7.5633 
  95   0.0000       0.286410         7.7936 
  96   0.0000       0.293371         7.9830 
  97   0.0000       0.296614         8.0713 
  98   0.0000       0.304112         8.2753 
  99   0.0000       0.314956         8.5704 
 100   0.0000       0.318098         8.6559 
 101   0.0000       0.327148         8.9021 
 102   0.0000       0.338156         9.2017 
 103   0.0000       0.342760         9.3270 
 104   0.0000       0.352864         9.6019 
 105   0.0000       0.357121         9.7178 
 106   0.0000       0.364897         9.9293 
 107   0.0000       0.375569        10.2198 
 108   0.0000       0.380635        10.3576 
 109   0.0000       0.386432        10.5154 
 110   0.0000       0.393346        10.7035 
 111   0.0000       0.395736        10.7685 
 112   0.0000       0.400795        10.9062 
 113   0.0000       0.407339        11.0842 
 114   0.0000       0.424965        11.5639 
 115   0.0000       0.428095        11.6490 
 116   0.0000       0.431690        11.7469 
 117   0.0000       0.443058        12.0562 
 118   0.0000       0.451268        12.2796 
 119   0.0000       0.455409        12.3923 
 120   0.0000       0.473869        12.8946 
 121   0.0000       0.477193        12.9851 
 122   0.0000       0.497124        13.5274 
 123   0.0000       0.501994        13.6599 
 124   0.0000       0.508198        13.8288 
 125   0.0000       0.524118        14.2620 
 126   0.0000       0.526526        14.3275 
 127   0.0000       0.541537        14.7360 
 128   0.0000       0.555822        15.1247 
 129   0.0000       0.566660        15.4196 
 130   0.0000       0.575307        15.6549 
 131   0.0000       0.578605        15.7446 
 132   0.0000       0.600202        16.3323 
 133   0.0000       0.613503        16.6943 
 134   0.0000       0.620522        16.8853 
 135   0.0000       0.625451        17.0194 
 136   0.0000       0.646547        17.5934 
 137   0.0000       0.655062        17.8251 
 138   0.0000       0.661098        17.9894 
 139   0.0000       0.673299        18.3214 
 140   0.0000       0.691582        18.8189 
 141   0.0000       0.706492        19.2246 
 142   0.0000       0.717074        19.5126 
 143   0.0000       0.735973        20.0269 
 144   0.0000       0.744483        20.2584 
 145   0.0000       0.746302        20.3079 
 146   0.0000       0.767328        20.8801 
 147   0.0000       0.773365        21.0443 
 148   0.0000       0.791689        21.5429 
 149   0.0000       0.802792        21.8451 
 150   0.0000       0.808150        21.9909 
 151   0.0000       0.814209        22.1558 
 152   0.0000       0.822486        22.3810 
 153   0.0000       0.830139        22.5892 
 154   0.0000       0.844998        22.9936 
 155   0.0000       0.851678        23.1753 
 156   0.0000       0.866964        23.5913 
 157   0.0000       0.876307        23.8455 
 158   0.0000       0.882036        24.0014 
 159   0.0000       0.903112        24.5749 
 160   0.0000       0.933761        25.4089 
 161   0.0000       0.936855        25.4931 
 162   0.0000       0.940263        25.5858 
 163   0.0000       0.956353        26.0237 
 164   0.0000       0.983285        26.7565 
 165   0.0000       0.984526        26.7903 
 166   0.0000       1.001714        27.2580 
 167   0.0000       1.017931        27.6993 
 168   0.0000       1.032460        28.0947 
 169   0.0000       1.061149        28.8753 
 170   0.0000       1.070507        29.1300 
 171   0.0000       1.091213        29.6934 
 172   0.0000       1.115875        30.3645 
 173   0.0000       1.124940        30.6112 
 174   0.0000       1.133633        30.8477 
 175   0.0000       1.142364        31.0853 
 176   0.0000       1.168974        31.8094 
 177   0.0000       1.172559        31.9069 
 178   0.0000       1.189681        32.3729 
 179   0.0000       1.201933        32.7063 
 180   0.0000       1.205751        32.8102 
 181   0.0000       1.249233        33.9934 
 182   0.0000       1.251188        34.0466 
 183   0.0000       1.270777        34.5796 
 184   0.0000       1.284512        34.9534 
 185   0.0000       1.292130        35.1606 
 186   0.0000       1.321496        35.9597 
 187   0.0000       1.328894        36.1611 
 188   0.0000       1.337232        36.3879 
 189   0.0000       1.353520        36.8312 
 190   0.0000       1.364461        37.1289 
 191   0.0000       1.382600        37.6225 
 192   0.0000       1.390283        37.8315 
 193   0.0000       1.398877        38.0654 
 194   0.0000       1.432346        38.9761 
 195   0.0000       1.448247        39.4088 
 196   0.0000       1.468687        39.9650 
 197   0.0000       1.471797        40.0496 
 198   0.0000       1.480965        40.2991 
 199   0.0000       1.499319        40.7985 
 200   0.0000       1.519164        41.3386 
 201   0.0000       1.531521        41.6748 
 202   0.0000       1.546967        42.0951 
 203   0.0000       1.550865        42.2012 
 204   0.0000       1.565842        42.6087 
 205   0.0000       1.577569        42.9278 
 206   0.0000       1.587827        43.2070 
 207   0.0000       1.605337        43.6834 
 208   0.0000       1.639620        44.6163 
 209   0.0000       1.640406        44.6377 
 210   0.0000       1.652542        44.9680 
 211   0.0000       1.660180        45.1758 
 212   0.0000       1.675809        45.6011 
 213   0.0000       1.682254        45.7765 
 214   0.0000       1.722459        46.8705 
 215   0.0000       1.723769        46.9061 
 216   0.0000       1.743688        47.4482 
 217   0.0000       1.766783        48.0766 
 218   0.0000       1.777068        48.3565 
 219   0.0000       1.797471        48.9117 
 220   0.0000       1.817410        49.4542 
 221   0.0000       1.823195        49.6117 
 222   0.0000       1.825833        49.6834 
 223   0.0000       1.841728        50.1160 
 224   0.0000       1.858335        50.5679 
 225   0.0000       1.867582        50.8195 
 226   0.0000       1.881641        51.2021 
 227   0.0000       1.895370        51.5756 
 228   0.0000       1.901917        51.7538 
 229   0.0000       1.924704        52.3739 
 230   0.0000       1.928860        52.4869 
 231   0.0000       1.948731        53.0277 
 232   0.0000       1.959943        53.3328 
 233   0.0000       1.984046        53.9886 
 234   0.0000       1.986415        54.0531 
 235   0.0000       2.014568        54.8192 
 236   0.0000       2.022539        55.0361 
 237   0.0000       2.033659        55.3387 
 238   0.0000       2.056839        55.9694 
 239   0.0000       2.063541        56.1518 
 240   0.0000       2.087035        56.7911 
 241   0.0000       2.100235        57.1503 
 242   0.0000       2.107652        57.3521 
 243   0.0000       2.120553        57.7032 
 244   0.0000       2.126987        57.8783 
 245   0.0000       2.142713        58.3062 
 246   0.0000       2.164145        58.8894 
 247   0.0000       2.183111        59.4055 
 248   0.0000       2.191223        59.6262 
 249   0.0000       2.207368        60.0655 
 250   0.0000       2.215756        60.2938 
 251   0.0000       2.253376        61.3175 
 252   0.0000       2.274086        61.8810 
 253   0.0000       2.287088        62.2348 
 254   0.0000       2.323113        63.2151 
 255   0.0000       2.326097        63.2963 
 256   0.0000       2.349789        63.9410 
 257   0.0000       2.369904        64.4884 
 258   0.0000       2.374144        64.6038 
 259   0.0000       2.393772        65.1378 
 260   0.0000       2.415779        65.7367 
 261   0.0000       2.423919        65.9582 
 262   0.0000       2.435658        66.2776 
 263   0.0000       2.453373        66.7597 
 264   0.0000       2.465504        67.0898 
 265   0.0000       2.478166        67.4343 
 266   0.0000       2.487474        67.6876 
 267   0.0000       2.507160        68.2233 
 268   0.0000       2.520193        68.5779 
 269   0.0000       2.536861        69.0315 
 270   0.0000       2.554974        69.5244 
 271   0.0000       2.566771        69.8454 
 272   0.0000       2.571846        69.9835 
 273   0.0000       2.593714        70.5786 
 274   0.0000       2.603882        70.8552 
 275   0.0000       2.629993        71.5657 
 276   0.0000       2.634923        71.6999 
 277   0.0000       2.642977        71.9191 
 278   0.0000       2.644204        71.9525 
 279   0.0000       2.674714        72.7827 
 280   0.0000       2.688234        73.1506 
 281   0.0000       2.695357        73.3444 
 282   0.0000       2.707765        73.6820 
 283   0.0000       2.720292        74.0229 
 284   0.0000       2.722873        74.0931 
 285   0.0000       2.755531        74.9818 
 286   0.0000       2.756540        75.0093 
 287   0.0000       2.776845        75.5618 
 288   0.0000       2.785571        75.7992 
 289   0.0000       2.812837        76.5412 
 290   0.0000       2.830673        77.0265 
 291   0.0000       2.840791        77.3019 
 292   0.0000       2.846466        77.4563 
 293   0.0000       2.856138        77.7195 
 294   0.0000       2.877980        78.3138 
 295   0.0000       2.883191        78.4556 
 296   0.0000       2.898841        78.8815 
 297   0.0000       2.925979        79.6199 
 298   0.0000       2.946166        80.1693 
 299   0.0000       2.947478        80.2049 
 300   0.0000       2.963466        80.6400 
 301   0.0000       2.971331        80.8540 
 302   0.0000       2.983336        81.1807 
 303   0.0000       2.999397        81.6177 
 304   0.0000       3.029618        82.4401 
 305   0.0000       3.037214        82.6468 
 306   0.0000       3.057740        83.2053 
 307   0.0000       3.075406        83.6861 
 308   0.0000       3.078247        83.7634 
 309   0.0000       3.098395        84.3116 
 310   0.0000       3.109879        84.6241 
 311   0.0000       3.121408        84.9378 
 312   0.0000       3.128764        85.1380 
 313   0.0000       3.141020        85.4715 
 314   0.0000       3.151122        85.7464 
 315   0.0000       3.166221        86.1573 
 316   0.0000       3.172964        86.3407 
 317   0.0000       3.190171        86.8090 
 318   0.0000       3.198851        87.0452 
 319   0.0000       3.206234        87.2461 
 320   0.0000       3.213371        87.4403 
 321   0.0000       3.233022        87.9750 
 322   0.0000       3.261686        88.7550 
 323   0.0000       3.272148        89.0397 
 324   0.0000       3.284843        89.3851 
 325   0.0000       3.295000        89.6615 
 326   0.0000       3.306885        89.9849 
 327   0.0000       3.324277        90.4582 
 328   0.0000       3.335200        90.7554 
 329   0.0000       3.341172        90.9179 
 330   0.0000       3.359909        91.4278 
 331   0.0000       3.384064        92.0851 
 332   0.0000       3.393564        92.3436 
 333   0.0000       3.394852        92.3786 
 334   0.0000       3.406288        92.6898 
 335   0.0000       3.414666        92.9178 
 336   0.0000       3.432784        93.4108 
 337   0.0000       3.440208        93.6128 
 338   0.0000       3.486668        94.8771 
 339   0.0000       3.525345        95.9295 
 340   0.0000       3.544306        96.4455 
 341   0.0000       3.555266        96.7437 
 342   0.0000       3.567677        97.0814 
 343   0.0000       3.580034        97.4177 
 344   0.0000       3.586118        97.5832 
 345   0.0000       3.604027        98.0706 
 346   0.0000       3.615107        98.3721 
 347   0.0000       3.636490        98.9539 
 348   0.0000       3.646494        99.2261 
 349   0.0000       3.670866        99.8893 
 350   0.0000       3.686156       100.3054 
 351   0.0000       3.725733       101.3823 
 352   0.0000       3.727513       101.4308 
 353   0.0000       3.751586       102.0859 
 354   0.0000       3.768608       102.5490 
 355   0.0000       3.780577       102.8747 
 356   0.0000       3.807507       103.6075 
 357   0.0000       3.821675       103.9931 
 358   0.0000       3.852446       104.8304 
 359   0.0000       3.883080       105.6640 
 360   0.0000       3.893603       105.9503 
 361   0.0000       3.907614       106.3316 
 362   0.0000       3.912921       106.4760 
 363   0.0000       3.952214       107.5452 
 364   0.0000       3.981883       108.3525 
 365   0.0000       3.998585       108.8070 
 366   0.0000       4.057271       110.4040 
 367   0.0000       4.063090       110.5623 
 368   0.0000       4.072190       110.8099 
 369   0.0000       4.099691       111.5583 
 370   0.0000       4.119524       112.0979 
 371   0.0000       4.151801       112.9763 
 372   0.0000       4.156383       113.1009 
 373   0.0000       4.203808       114.3914 
 374   0.0000       4.208342       114.5148 
 375   0.0000       4.213985       114.6684 
 376   0.0000       4.242187       115.4358 
 377   0.0000       4.257389       115.8494 
 378   0.0000       4.290834       116.7595 
 379   0.0000       4.316732       117.4643 
 380   0.0000       4.353286       118.4589 
 381   0.0000       4.371339       118.9502 
 382   0.0000       4.400642       119.7476 
 383   0.0000       4.456447       121.2661 
 384   0.0000       4.481800       121.9560 
 385   0.0000       4.520592       123.0116 
 386   0.0000       4.582787       124.7040 
 387   0.0000       4.601452       125.2119 
 388   0.0000       4.650521       126.5471 
 389   0.0000       4.693967       127.7293 
 390   0.0000       4.705758       128.0502 
 391   0.0000       4.735404       128.8569 
 392   0.0000       4.753118       129.3389 
 393   0.0000       4.768982       129.7706 
 394   0.0000       4.802325       130.6779 
 395   0.0000       4.828958       131.4026 
 396   0.0000       4.837090       131.6239 
 397   0.0000       4.922033       133.9353 
 398   0.0000       4.938086       134.3722 
 399   0.0000       4.978072       135.4602 
 400   0.0000       4.986365       135.6859 
 401   0.0000       5.024287       136.7178 
 402   0.0000       5.106170       138.9460 
 403   0.0000       5.109138       139.0267 
 404   0.0000       5.150531       140.1531 
 405   0.0000       5.172574       140.7529 
 406   0.0000       5.180499       140.9685 
 407   0.0000       5.266703       143.3143 
 408   0.0000       5.284602       143.8013 
 409   0.0000       5.306090       144.3860 
 410   0.0000       5.343971       145.4168 
 411   0.0000       5.368676       146.0891 
 412   0.0000       5.440146       148.0339 
 413   0.0000       5.449762       148.2956 
 414   0.0000       5.487544       149.3237 
 415   0.0000       5.523570       150.3040 
 416   0.0000       5.663103       154.1009 
 417   0.0000       5.664384       154.1357 
 418   0.0000       5.664717       154.1448 
 419   0.0000       5.665098       154.1552 
 420   0.0000       5.665446       154.1646 
 421   0.0000       5.666293       154.1877 
 422   0.0000       5.668417       154.2455 
 423   0.0000       5.676172       154.4565 
 424   0.0000       5.687192       154.7564 
 425   0.0000       5.741002       156.2206 
[...]
     39       0.000212  -0.000236  -0.000088  -0.000313  -0.000124  -0.000329
     40       0.000000  -0.000020  -0.000010  -0.000102  -0.000016   0.000113
     41      -0.000027  -0.000007   0.000002   0.000025   0.000001   0.000003
     42      -0.006455   0.007204   0.001906  -0.009098   0.003209  -0.003034
     43      -0.000739   0.000774   0.000285   0.000242   0.000417  -0.000641
     44      -0.000086   0.000137  -0.000139  -0.000588   0.000021  -0.000051
     45       0.013605  -0.001811   0.009041   0.443626   0.015857   0.023195
     46       0.021256  -0.003163   0.014449   0.886795   0.032958   0.048616
     47      -0.001979   0.000318  -0.001278  -0.061884  -0.002333  -0.002781
     48      -0.361189   0.033686  -0.182153   0.013318   0.053145   0.004122
     49      -0.763371   0.065204  -0.354774   0.021129   0.109743   0.004654
     50       0.265811  -0.023769   0.132032  -0.006454  -0.042713  -0.001524
     51      -0.245245  -0.042974   0.503756   0.000408  -0.053902   0.011811
     52       0.349171   0.053688  -0.662215   0.001530   0.072836  -0.010832
     53       0.147338   0.021422  -0.302851   0.000616   0.034481  -0.004573
     54       0.059428   0.758786   0.132950  -0.015208   0.367904   0.014772
     55       0.018006   0.265146   0.044560  -0.004537   0.119699   0.004772
     56       0.023121   0.353082   0.064850  -0.006763   0.180954   0.007852
     57       0.007818  -0.111339   0.017685  -0.008670   0.192165   0.006518
     58       0.044195  -0.430267   0.076079  -0.035460   0.821093   0.026776
     59      -0.011884   0.124032  -0.023184   0.010701  -0.261687  -0.007233
     60       0.005271  -0.000993  -0.011018  -0.029664  -0.017850   0.502914
     61      -0.007365   0.001807   0.013629   0.046529   0.029915  -0.829544
     62       0.000019  -0.000274  -0.000296  -0.003280  -0.001625   0.049571
     63       0.000045   0.000915  -0.001712   0.002294  -0.000985   0.096169
     64      -0.000890   0.001754  -0.003431   0.004712  -0.002082   0.188464
     65      -0.000196   0.000150   0.000235   0.000243  -0.000128   0.009485
     66      -0.000012   0.000015   0.000004   0.000009   0.000005   0.000012
     67       0.000002  -0.000003  -0.000002  -0.000009  -0.000003  -0.000009
     68      -0.000000  -0.000000   0.000001  -0.000001  -0.000002  -0.000000
                 66         67         68    
      0      -0.000193  -0.000402   0.000099
      1       0.000053   0.000031   0.000014
      2       0.000011   0.000005  -0.000003
      3      -0.000132   0.000233   0.000113
      4      -0.000197  -0.000110   0.000028
      5       0.000001  -0.000011  -0.000016
      6      -0.000822  -0.000114  -0.000174
      7      -0.001357   0.000029   0.000051
      8       0.000056  -0.000525   0.000011
      9      -0.000923  -0.000164   0.000158
     10      -0.001374   0.000176   0.000176
     11       0.000023   0.000033   0.000265
     12      -0.000117   0.000202  -0.000032
     13      -0.000101  -0.000146  -0.000152
     14       0.000067  -0.000010   0.000168
     15      -0.000291   0.000821   0.000330
     16      -0.000275   0.000751   0.001468
     17      -0.000084   0.000334  -0.000373
     18       0.000047  -0.001866   0.039214
     19       0.000025   0.033947   0.061397
     20      -0.000018   0.045606  -0.036286
     21      -0.000275   0.282719  -0.347992
     22      -0.000132   0.251472  -0.296914
     23       0.000328  -0.489872   0.637844
     24      -0.000688  -0.003755   0.008525
     25      -0.000427   0.007081   0.009082
     26      -0.000586   0.009936  -0.004065
     27       0.000035  -0.260394  -0.199938
     28      -0.000144  -0.723892  -0.564395
     29       0.000003  -0.146472  -0.134939
     30      -0.012351  -0.000045  -0.000162
     31       0.015579  -0.000069  -0.000205
     32      -0.001142  -0.000055  -0.000008
     33       0.040013  -0.000025   0.000091
     34       0.074308   0.000031  -0.000045
     35       0.003777  -0.000027  -0.000046
     36       0.002829   0.000277  -0.000142
     37      -0.001538   0.000022   0.000005
     38       0.000125   0.000005   0.000006
     39      -0.000476  -0.000203   0.000107
     40       0.000080   0.000025  -0.000019
     41      -0.000010   0.000018   0.000003
     42       0.003106   0.005536  -0.001579
     43       0.000440   0.000779  -0.000138
     44      -0.000066  -0.000067   0.000014
     45       0.007173  -0.001027  -0.000175
     46       0.015190  -0.002114  -0.000332
     47      -0.000976   0.000722   0.000438
     48       0.002318   0.000391   0.000235
     49       0.003048   0.000948   0.000750
     50      -0.000776  -0.000507   0.000358
     51       0.000845   0.001044  -0.000763
     52      -0.000304  -0.000614   0.000835
     53      -0.000049  -0.000953   0.000322
     54       0.003237  -0.004987  -0.004603
     55       0.001111  -0.005128  -0.001409
     56       0.001812  -0.002996  -0.001371
     57       0.000541   0.001213  -0.003595
     58       0.002478  -0.008598  -0.017364
     59      -0.000704  -0.000824   0.005481
     60       0.110432  -0.000255  -0.000170
     61      -0.175533   0.000432   0.000379
     62       0.010821   0.000140   0.000001
     63      -0.452654  -0.000139   0.000163
     64      -0.861530  -0.000316   0.000223
     65      -0.043187  -0.000031   0.000221
     66      -0.000003   0.000017  -0.000007
     67      -0.000001  -0.000013   0.000006
     68      -0.000000  -0.000002  -0.000003


-----------
IR SPECTRUM
-----------

 Mode   freq       eps      Int      T**2         TX        TY        TZ
       cm**-1   L/(mol*cm) km/mol    a.u.
----------------------------------------------------------------------------
  6:     19.96   0.000619    3.13  0.009686  (-0.094474  0.015573  0.022754)
  7:     60.53   0.001972    9.96  0.010165  ( 0.081062  0.059766  0.004658)
  8:     87.35   0.002423   12.25  0.008657  ( 0.076135 -0.032663  0.042348)
  9:    119.15   0.000128    0.65  0.000336  (-0.015135 -0.005507  0.008736)
 10:    138.76   0.001569    7.93  0.003528  (-0.048879 -0.004192 -0.033489)
 11:    159.59   0.000169    0.85  0.000330  (-0.015320  0.008117  0.005392)
 12:    215.56   0.001175    5.94  0.001700  (-0.022840  0.032190  0.011938)
 13:    272.81   0.004690   23.70  0.005365  ( 0.057433  0.007071  0.044903)
 14:    293.01   0.000529    2.67  0.000563  (-0.009558  0.001870 -0.021636)
 15:    310.91   0.000802    4.05  0.000805  ( 0.024955  0.006625  0.011770)
 16:    370.42   0.001685    8.52  0.001420  (-0.029912  0.018132 -0.014014)
 17:    401.25   0.012920   65.29  0.010048  (-0.044539 -0.014311 -0.088655)
 18:    436.84   0.000777    3.93  0.000555  (-0.004974  0.013538  0.018627)
 19:    460.46   0.001167    5.90  0.000791  ( 0.009194  0.014778  0.022090)
 20:    482.10   0.003184   16.09  0.002061  (-0.044336  0.004836 -0.008477)
 21:    538.64   0.001416    7.16  0.000821  ( 0.010438 -0.003933  0.026384)
 22:    582.68   0.005255   26.56  0.002814  (-0.035739 -0.009836  0.037950)
 23:    596.04   0.002402   12.14  0.001258  ( 0.032299 -0.012998 -0.006751)
 24:    626.52   0.002616   13.22  0.001303  (-0.031395  0.004468  0.017242)
 25:    698.52   0.001630    8.24  0.000728  ( 0.024114  0.012105 -0.000606)
 26:    724.54   0.000849    4.29  0.000366  ( 0.017639 -0.002684  0.006874)
 27:    776.15   0.002107   10.65  0.000847  ( 0.026628 -0.009115 -0.007421)
 28:    794.37   0.002017   10.19  0.000792  ( 0.020911  0.003588 -0.018502)
 29:    821.31   0.003041   15.37  0.001155  ( 0.011236 -0.005480  0.031609)
 30:    826.82   0.020415  103.17  0.007705  ( 0.050143 -0.001886  0.072024)
 31:    850.89   0.003659   18.49  0.001342  ( 0.020964 -0.001288  0.030011)
 32:    895.06   0.000876    4.43  0.000306  ( 0.009466 -0.004910  0.013852)
 33:    915.26   0.002116   10.69  0.000722  ( 0.020768  0.012465  0.011612)
 34:    944.74   0.000806    4.07  0.000266  ( 0.010631  0.012379 -0.000112)
 35:    958.68   0.001652    8.35  0.000538  ( 0.011368 -0.018385 -0.008405)
 36:   1036.37   0.008672   43.82  0.002611  ( 0.025067  0.001173  0.044513)
 37:   1052.54   0.003111   15.72  0.000922  (-0.025341  0.003584 -0.016354)
 38:   1101.65   0.002459   12.42  0.000696  ( 0.016347  0.020663  0.001496)
 39:   1145.76   0.001208    6.11  0.000329  (-0.000812 -0.018105 -0.000834)
 40:   1172.57   0.002144   10.83  0.000571  ( 0.015163 -0.017218  0.006648)
 41:   1202.68   0.002334   11.79  0.000606  ( 0.019634 -0.003096  0.014507)
 42:   1239.75   0.013894   70.21  0.003497  ( 0.046522 -0.032143  0.017316)
 43:   1251.76   0.000766    3.87  0.000191  ( 0.008340 -0.005825  0.009349)
 44:   1264.02   0.009478   47.90  0.002340  ( 0.041238 -0.022519  0.011497)
 45:   1294.21   0.002790   14.10  0.000673  ( 0.020393 -0.008458 -0.013617)
 46:   1325.75   0.042155  213.03  0.009923  (-0.085698  0.050199 -0.007653)
 47:   1330.29   0.018563   93.81  0.004355  (-0.060776  0.011598 -0.022944)
 48:   1364.06   0.020497  103.58  0.004689  ( 0.065316  0.014752  0.014328)
 49:   1398.20   0.022584  114.13  0.005041  ( 0.003195  0.039796  0.058708)
 50:   1423.45   0.001161    5.87  0.000254  (-0.008003 -0.003900  0.013237)
 51:   1444.26   0.002045   10.33  0.000442  (-0.016880  0.002158  0.012339)
 52:   1446.64   0.001696    8.57  0.000366  ( 0.012853 -0.006737  0.012460)
 53:   1500.16   0.091949  464.67  0.019127  (-0.131501  0.034983 -0.024720)
 54:   1523.22   0.003750   18.95  0.000768  (-0.019664  0.013880  0.013743)
 55:   1542.15   0.009661   48.83  0.001955  (-0.032405 -0.001188  0.030059)
 56:   1574.88   0.008922   45.09  0.001768  ( 0.041483 -0.005681 -0.003850)
 57:   1585.75   0.005462   27.60  0.001075  (-0.019861 -0.011960 -0.023181)
 58:   2255.28   0.281539  1422.78  0.038957  (-0.123633 -0.023719 -0.152016)
 59:   2833.38   0.242566  1225.83  0.026716  (-0.160575 -0.022082  0.021072)
 60:   2967.67   0.008268   41.78  0.000869  ( 0.028012  0.008367 -0.003840)
 61:   2995.97   0.013139   66.40  0.001369  (-0.031811  0.001146 -0.018852)
 62:   3024.29   0.002732   13.81  0.000282  (-0.013293  0.009556 -0.003733)
 63:   3053.80   0.002617   13.23  0.000267  (-0.007786 -0.014373  0.000503)
 64:   3068.62   0.003416   17.26  0.000347  (-0.015586 -0.009395 -0.004024)
 65:   3072.88   0.004804   24.28  0.000488  (-0.018277  0.012398 -0.000338)
 66:   3114.04   0.001632    8.25  0.000164  ( 0.004380  0.011889  0.001727)
 67:   3382.04   0.005105   25.80  0.000471  ( 0.012136 -0.011885 -0.013510)
 68:   3456.30   0.009257   46.78  0.000836  (-0.015359 -0.020051  0.014064)

* The epsilon (eps) is given for a Dirac delta lineshape.
** The dipole moment derivative (T) already includes vibrational overlap.

The first frequency considered to be a vibration is 6
The total number of vibrations considered is 63


--------------------------
THERMOCHEMISTRY AT 298.15K
--------------------------

Temperature         ... 298.15 K
Pressure            ... 1.00 atm
Total Mass          ... 216.73 AMU

Throughout the following assumptions are being made:
  (1) The electronic state is orbitally nondegenerate
      but the spin degeneracy is treated
  (2) There are no thermally accessible electronically excited states
  (3) Hindered rotations indicated by low frequency modes are not
      treated as such but are treated as vibrations and this may
      cause some error
  (4) All equations used are the standard statistical mechanics
      equations for an ideal gas
  (5) All vibrations are strictly harmonic

freq.      19.96  E(vib)   ...       0.56 
freq.      60.53  E(vib)   ...       0.51 
freq.      87.35  E(vib)   ...       0.48 
freq.     119.15  E(vib)   ...       0.44 
freq.     138.76  E(vib)   ...       0.42 
freq.     159.59  E(vib)   ...       0.39 
freq.     215.56  E(vib)   ...       0.34 
freq.     272.81  E(vib)   ...       0.29 
freq.     293.01  E(vib)   ...       0.27 
freq.     310.91  E(vib)   ...       0.26 
freq.     370.42  E(vib)   ...       0.21 
freq.     401.25  E(vib)   ...       0.19 
freq.     436.84  E(vib)   ...       0.17 
freq.     460.46  E(vib)   ...       0.16 
freq.     482.10  E(vib)   ...       0.15 
freq.     538.64  E(vib)   ...       0.12 
freq.     582.68  E(vib)   ...       0.11 
freq.     596.04  E(vib)   ...       0.10 
freq.     626.52  E(vib)   ...       0.09 
freq.     698.52  E(vib)   ...       0.07 
freq.     724.54  E(vib)   ...       0.06 
freq.     776.15  E(vib)   ...       0.05 
freq.     794.37  E(vib)   ...       0.05 
freq.     821.31  E(vib)   ...       0.05 
freq.     826.82  E(vib)   ...       0.04 
freq.     850.89  E(vib)   ...       0.04 
freq.     895.06  E(vib)   ...       0.03 
freq.     915.26  E(vib)   ...       0.03 
freq.     944.74  E(vib)   ...       0.03 
freq.     958.68  E(vib)   ...       0.03 
freq.    1036.37  E(vib)   ...       0.02 
freq.    1052.54  E(vib)   ...       0.02 
freq.    1101.65  E(vib)   ...       0.02 
freq.    1145.76  E(vib)   ...       0.01 
freq.    1172.57  E(vib)   ...       0.01 
freq.    1202.68  E(vib)   ...       0.01 
freq.    1239.75  E(vib)   ...       0.01 
freq.    1251.76  E(vib)   ...       0.01 
freq.    1264.02  E(vib)   ...       0.01 
freq.    1294.21  E(vib)   ...       0.01 
freq.    1325.75  E(vib)   ...       0.01 
freq.    1330.29  E(vib)   ...       0.01 
freq.    1364.06  E(vib)   ...       0.01 
freq.    1398.20  E(vib)   ...       0.00 
freq.    1423.45  E(vib)   ...       0.00 
freq.    1444.26  E(vib)   ...       0.00 
freq.    1446.64  E(vib)   ...       0.00 
freq.    1500.16  E(vib)   ...       0.00 
freq.    1523.22  E(vib)   ...       0.00 
freq.    1542.15  E(vib)   ...       0.00 
freq.    1574.88  E(vib)   ...       0.00 
freq.    1585.75  E(vib)   ...       0.00 
freq.    2255.28  E(vib)   ...       0.00 
freq.    2833.38  E(vib)   ...       0.00 
freq.    2967.67  E(vib)   ...       0.00 
freq.    2995.97  E(vib)   ...       0.00 
freq.    3024.29  E(vib)   ...       0.00 
freq.    3053.80  E(vib)   ...       0.00 
freq.    3068.62  E(vib)   ...       0.00 
freq.    3072.88  E(vib)   ...       0.00 
freq.    3114.04  E(vib)   ...       0.00 
freq.    3382.04  E(vib)   ...       0.00 
freq.    3456.30  E(vib)   ...       0.00 

------------
INNER ENERGY
------------

The inner energy is: U= E(el) + E(ZPE) + E(vib) + E(rot) + E(trans)
    E(el)   - is the total energy from the electronic structure calculation
              = E(kin-el) + E(nuc-el) + E(el-el) + E(nuc-nuc)
    E(ZPE)  - the the zero temperature vibrational energy from the frequency calculation
    E(vib)  - the the finite temperature correction to E(ZPE) due to population
              of excited vibrational states
    E(rot)  - is the rotational thermal energy
    E(trans)- is the translational thermal energy

Summary of contributions to the inner energy U:
Electronic energy                ...  -2156.49578440 Eh
Zero point energy                ...      0.17729464 Eh     111.25 kcal/mol
Thermal vibrational correction   ...      0.00943474 Eh       5.92 kcal/mol
Thermal rotational correction    ...      0.00141627 Eh       0.89 kcal/mol
Thermal translational correction ...      0.00141627 Eh       0.89 kcal/mol
-----------------------------------------------------------------------
Total thermal energy                  -2156.30622247 Eh


Summary of corrections to the electronic energy:
(perhaps to be used in another calculation)
Total thermal correction                  0.01226728 Eh       7.70 kcal/mol
Non-thermal (ZPE) correction              0.17729464 Eh     111.25 kcal/mol
-----------------------------------------------------------------------
Total correction                          0.18956192 Eh     118.95 kcal/mol


--------
ENTHALPY
--------

The enthalpy is H = U + kB*T
                kB is Boltzmann's constant
Total free energy                 ...  -2156.30622247 Eh 
Thermal Enthalpy correction       ...      0.00094421 Eh       0.59 kcal/mol
-----------------------------------------------------------------------
Total Enthalpy                    ...  -2156.30527826 Eh


Note: Only C1 symmetry has been detected, increase convergence thresholds 
      if your molecule has a higher symmetry. Symmetry factor of 1.0 is   
      used for the rotational entropy correction. 
 

Note: Rotational entropy computed according to Herzberg 
Infrared and Raman Spectra, Chapter V,1, Van Nostrand Reinhold, 1945 
Point Group:  C1, Symmetry Number:   1  
Rotational constants in cm-1:     0.057627     0.010810     0.010135 

Vibrational entropy computed according to the QRRHO of S. Grimme
Chem.Eur.J. 2012 18 9955


-------
ENTROPY
-------

The entropy contributions are T*S = T*(S(el)+S(vib)+S(rot)+S(trans))
     S(el)   - electronic entropy
     S(vib)  - vibrational entropy
     S(rot)  - rotational entropy
     S(trans)- translational entropy
The entropies will be listed as multiplied by the temperature to get
units of energy

Electronic entropy                ...      0.00065446 Eh      0.41 kcal/mol
Vibrational entropy               ...      0.01657110 Eh     10.40 kcal/mol
Rotational entropy                ...      0.01516303 Eh      9.51 kcal/mol
Translational entropy             ...      0.01996671 Eh     12.53 kcal/mol
-----------------------------------------------------------------------
Final entropy term                ...      0.05235530 Eh     32.85 kcal/mol

In case the symmetry of your molecule has not been determined correctly
or in case you have a reason to use a different symmetry number we print 
out the resulting rotational entropy values for sn=1,12 :
 --------------------------------------------------------
|  sn= 1 | S(rot)=       0.01516303 Eh      9.51 kcal/mol|
|  sn= 2 | S(rot)=       0.01450858 Eh      9.10 kcal/mol|
|  sn= 3 | S(rot)=       0.01412575 Eh      8.86 kcal/mol|
|  sn= 4 | S(rot)=       0.01385412 Eh      8.69 kcal/mol|
|  sn= 5 | S(rot)=       0.01364343 Eh      8.56 kcal/mol|
|  sn= 6 | S(rot)=       0.01347129 Eh      8.45 kcal/mol|
|  sn= 7 | S(rot)=       0.01332574 Eh      8.36 kcal/mol|
|  sn= 8 | S(rot)=       0.01319967 Eh      8.28 kcal/mol|
|  sn= 9 | S(rot)=       0.01308846 Eh      8.21 kcal/mol|
|  sn=10 | S(rot)=       0.01298898 Eh      8.15 kcal/mol|
|  sn=11 | S(rot)=       0.01289899 Eh      8.09 kcal/mol|
|  sn=12 | S(rot)=       0.01281683 Eh      8.04 kcal/mol|
 --------------------------------------------------------


-------------------
GIBBS FREE ENERGY
-------------------

The Gibbs free energy is G = H - T*S

Total enthalpy                    ...  -2156.30527826 Eh 
Total entropy correction          ...     -0.05235530 Eh    -32.85 kcal/mol
-----------------------------------------------------------------------
Final Gibbs free energy         ...  -2156.35763356 Eh

For completeness - the Gibbs free energy minus the electronic energy
G-E(el)                           ...      0.13815083 Eh     86.69 kcal/mol



Timings for individual modules:

Sum of individual times         ...     1437.953 sec (=  23.966 min)
GTO integral calculation        ...        4.338 sec (=   0.072 min)   0.3 %
SCF iterations                  ...       52.750 sec (=   0.879 min)   3.7 %
SCF Gradient evaluation         ...       10.848 sec (=   0.181 min)   0.8 %
Geometry relaxation             ...        0.078 sec (=   0.001 min)   0.0 %
Numerical frequency calculation ...     1369.940 sec (=  22.832 min)  95.3 %



                             ****ORCA TERMINATED NORMALLY****
TOTAL RUN TIME: 0 days 1 hours 48 minutes 27 seconds 889 msec
