
                                 *****************
                                 * O   R   C   A *
                                 *****************

                                            #,                                       
                                            ###                                      
                                            ####                                     
                                            #####                                    
                                            ######                                   
                                           ########,                                 
                                     ,,################,,,,,                         
                               ,,#################################,,                 
                          ,,##########################################,,             
                       ,#########################################, ''#####,          
                    ,#############################################,,   '####,        
                  ,##################################################,,,,####,       
                ,###########''''           ''''###############################       
              ,#####''   ,,,,##########,,,,          '''####'''          '####       
            ,##' ,,,,###########################,,,                        '##       
           ' ,,###''''                  '''############,,,                           
         ,,##''                                '''############,,,,        ,,,,,,###''
      ,#''                                            '''#######################'''  
     '                                                          ''''####''''         
             ,#######,   #######,   ,#######,      ##                                
            ,#'     '#,  ##    ##  ,#'     '#,    #''#        ######   ,####,        
            ##       ##  ##   ,#'  ##            #'  '#       #        #'  '#        
            ##       ##  #######   ##           ,######,      #####,   #    #        
            '#,     ,#'  ##    ##  '#,     ,#' ,#      #,         ##   #,  ,#        
             '#######'   ##     ##  '#######'  #'      '#     #####' # '####'        



                  #######################################################
                  #                        -***-                        #
                  #          Department of theory and spectroscopy      #
                  #    Directorship and core code : Frank Neese         #
                  #        Max Planck Institute fuer Kohlenforschung    #
                  #                Kaiser Wilhelm Platz 1               #
                  #                 D-45470 Muelheim/Ruhr               #
                  #                      Germany                        #
                  #                                                     #
                  #                  All rights reserved                #
                  #                        -***-                        #
                  #######################################################


                         Program Version 5.0.2 -  RELEASE  -


 With contributions from (in alphabetic order):
   Daniel Aravena         : Magnetic Suceptibility
   Michael Atanasov       : Ab Initio Ligand Field Theory (pilot matlab implementation)
   Alexander A. Auer      : GIAO ZORA, VPT2 properties, NMR spectrum
   Ute Becker             : Parallelization
   Giovanni Bistoni       : ED, misc. LED, open-shell LED, HFLD
   Martin Brehm           : Molecular dynamics
   Dmytro Bykov           : SCF Hessian
   Vijay G. Chilkuri      : MRCI spin determinant printing, contributions to CSF-ICE
   Dipayan Datta          : RHF DLPNO-CCSD density
   Achintya Kumar Dutta   : EOM-CC, STEOM-CC
   Dmitry Ganyushin       : Spin-Orbit,Spin-Spin,Magnetic field MRCI
   Miquel Garcia          : C-PCM and meta-GGA Hessian, CC/C-PCM, Gaussian charge scheme
   Yang Guo               : DLPNO-NEVPT2, F12-NEVPT2, CIM, IAO-localization
   Andreas Hansen         : Spin unrestricted coupled pair/coupled cluster methods
   Benjamin Helmich-Paris : MC-RPA, TRAH-SCF, COSX integrals
   Lee Huntington         : MR-EOM, pCC
   Robert Izsak           : Overlap fitted RIJCOSX, COSX-SCS-MP3, EOM
   Marcus Kettner         : VPT2
   Christian Kollmar      : KDIIS, OOCD, Brueckner-CCSD(T), CCSD density, CASPT2, CASPT2-K
   Simone Kossmann        : Meta GGA functionals, TD-DFT gradient, OOMP2, MP2 Hessian
   Martin Krupicka        : Initial AUTO-CI
   Lucas Lang             : DCDCAS
   Marvin Lechner         : AUTO-CI (C++ implementation), FIC-MRCC
   Dagmar Lenk            : GEPOL surface, SMD
   Dimitrios Liakos       : Extrapolation schemes; Compound Job, initial MDCI parallelization
   Dimitrios Manganas     : Further ROCIS development; embedding schemes
   Dimitrios Pantazis     : SARC Basis sets
   Anastasios Papadopoulos: AUTO-CI, single reference methods and gradients
   Taras Petrenko         : DFT Hessian,TD-DFT gradient, ASA, ECA, R-Raman, ABS, FL, XAS/XES, NRVS
   Peter Pinski           : DLPNO-MP2, DLPNO-MP2 Gradient
   Christoph Reimann      : Effective Core Potentials
   Marius Retegan         : Local ZFS, SOC
   Christoph Riplinger    : Optimizer, TS searches, QM/MM, DLPNO-CCSD(T), (RO)-DLPNO pert. Triples
   Tobias Risthaus        : Range-separated hybrids, TD-DFT gradient, RPA, STAB
   Michael Roemelt        : Original ROCIS implementation
   Masaaki Saitow         : Open-shell DLPNO-CCSD energy and density
   Barbara Sandhoefer     : DKH picture change effects
   Avijit Sen             : IP-ROCIS
   Kantharuban Sivalingam : CASSCF convergence, NEVPT2, FIC-MRCI
   Bernardo de Souza      : ESD, SOC TD-DFT
   Georgi Stoychev        : AutoAux, RI-MP2 NMR, DLPNO-MP2 response
   Willem Van den Heuvel  : Paramagnetic NMR
   Boris Wezisla          : Elementary symmetry handling
   Frank Wennmohs         : Technical directorship


 We gratefully acknowledge several colleagues who have allowed us to
 interface, adapt or use parts of their codes:
   Stefan Grimme, W. Hujo, H. Kruse, P. Pracht,  : VdW corrections, initial TS optimization,
                  C. Bannwarth, S. Ehlert          DFT functionals, gCP, sTDA/sTD-DF
   Ed Valeev, F. Pavosevic, A. Kumar             : LibInt (2-el integral package), F12 methods
   Garnet Chan, S. Sharma, J. Yang, R. Olivares  : DMRG
   Ulf Ekstrom                                   : XCFun DFT Library
   Mihaly Kallay                                 : mrcc  (arbitrary order and MRCC methods)
   Jiri Pittner, Ondrej Demel                    : Mk-CCSD
   Frank Weinhold                                : gennbo (NPA and NBO analysis)
   Christopher J. Cramer and Donald G. Truhlar   : smd solvation model
   Lars Goerigk                                  : TD-DFT with DH, B97 family of functionals
   V. Asgeirsson, H. Jonsson                     : NEB implementation
   FAccTs GmbH                                   : IRC, NEB, NEB-TS, DLPNO-Multilevel, CI-OPT
                                                   MM, QMMM, 2- and 3-layer-ONIOM, Crystal-QMMM,
                                                   LR-CPCM, SF, NACMEs, symmetry and pop. for TD-DFT,
                                                   nearIR, NL-DFT gradient (VV10), updates on ESD,
                                                   ML-optimized integration grids
   S Lehtola, MJT Oliveira, MAL Marques          : LibXC Library
   Liviu Ungur et al                             : ANISO software


 Your calculation uses the libint2 library for the computation of 2-el integrals
 For citations please refer to: http://libint.valeyev.net

 Your ORCA version has been built with support for libXC version: 5.1.0
 For citations please refer to: https://tddft.org/programs/libxc/

 This ORCA versions uses:
   CBLAS   interface :  Fast vector & matrix operations
   LAPACKE interface :  Fast linear algebra routines
   SCALAPACK package :  Parallel linear algebra routines
   Shared memory     :  Shared parallel matrices
   BLAS/LAPACK       :  OpenBLAS 0.3.15  USE64BITINT DYNAMIC_ARCH NO_AFFINITY Haswell SINGLE_THREADED
        Core in use  :  Haswell
   Copyright (c) 2011-2014, The OpenBLAS Project


Your calculation utilizes the atom-pairwise dispersion correction
with the Becke-Johnson damping scheme (D3BJ)
Cite in your paper:
S.Grimme, S.Ehrlich, L.Goerigk, J Comput Chem, (2011), 32, 1456–1465 
S.Grimme, J.Antony, S.Ehrlich and H.Krieg, J.Chem.Phys., 132, (2010), 154104 
   

================================================================================

----- Orbital basis set information -----
Your calculation utilizes the basis: def2-TZVP
   F. Weigend and R. Ahlrichs, Phys. Chem. Chem. Phys. 7, 3297 (2005).

----- AuxJ basis set information -----
Your calculation utilizes the auxiliary basis: def2/J
   F. Weigend, Phys. Chem. Chem. Phys. 8, 1057 (2006).

================================================================================
                                        WARNINGS
                       Please study these warnings very carefully!
================================================================================


WARNING: your system is open-shell and RHF/RKS was chosen
  ===> : WILL SWITCH to UHF/UKS


WARNING: The environment variable RSH_COMMAND is not set!
  ===> : All Displacements for the Numerical Hessian or Gradient calculation
         will be started on localhost

INFO   : the flag for use of the SHARK integral package has been found!

Your calculation utilizes the atom-pairwise dispersion correction
with the Becke-Johnson damping scheme (D3BJ)
Cite in your paper:
S.Grimme, S.Ehrlich, L.Goerigk, J Comput Chem, (2011), 32, 1456–1465 
S.Grimme, J.Antony, S.Ehrlich and H.Krieg, J.Chem.Phys., 132, (2010), 154104 
   

================================================================================

----- Orbital basis set information -----
Your calculation utilizes the basis: def2-TZVP
   F. Weigend and R. Ahlrichs, Phys. Chem. Chem. Phys. 7, 3297 (2005).

----- AuxJ basis set information -----
Your calculation utilizes the auxiliary basis: def2/J
   F. Weigend, Phys. Chem. Chem. Phys. 8, 1057 (2006).

================================================================================
                                        WARNINGS
                       Please study these warnings very carefully!
================================================================================


WARNING: MOInp is set but Guess=PModel. MOInp will be ignored!
         To read the initial guess from a file you must also specify
         'MORead' in the simple input or 'Guess MORead' in the %scf block


WARNING: The environment variable RSH_COMMAND is not set!
  ===> : All Displacements for the Numerical Hessian or Gradient calculation
         will be started on localhost

INFO   : the flag for use of the SHARK integral package has been found!

Your calculation utilizes the atom-pairwise dispersion correction
with the Becke-Johnson damping scheme (D3BJ)
Cite in your paper:
S.Grimme, S.Ehrlich, L.Goerigk, J Comput Chem, (2011), 32, 1456–1465 
S.Grimme, J.Antony, S.Ehrlich and H.Krieg, J.Chem.Phys., 132, (2010), 154104 
   

================================================================================

----- Orbital basis set information -----
Your calculation utilizes the basis: def2-TZVP
   F. Weigend and R. Ahlrichs, Phys. Chem. Chem. Phys. 7, 3297 (2005).

----- AuxJ basis set information -----
Your calculation utilizes the auxiliary basis: def2/J
   F. Weigend, Phys. Chem. Chem. Phys. 8, 1057 (2006).

================================================================================
                                        WARNINGS
                       Please study these warnings very carefully!
================================================================================


WARNING: MOInp is set but Guess=PModel. MOInp will be ignored!
         To read the initial guess from a file you must also specify
         'MORead' in the simple input or 'Guess MORead' in the %scf block


WARNING: The environment variable RSH_COMMAND is not set!
  ===> : All Displacements for the Numerical Hessian or Gradient calculation
         will be started on localhost

INFO   : the flag for use of the SHARK integral package has been found!

================================================================================
                                       INPUT FILE
================================================================================
NAME = ex.inp
|  1> ! PBE D3 def2-TZVP opt numfreq PModel NOAUTOSTART
|  2> %pal nprocs=16 end
|  3> %geom maxiter=150 end
|  4> %base "neutral"
|  5> *xyz 2 2
|  6>   C   -0.09973149989031     -0.93640895028676     -0.43275646781429
|  7>   C   -1.16431425224647      1.65996620464076      0.10116240969477
|  8>   C   -1.47291229179405     -0.78128418322180     -0.15809843723015
|  9>   C   0.73062655341467      0.17017456074279     -0.45346762280581
| 10>   C   0.17541728297606      1.47142845718860     -0.17152354524282
| 11>   C   -2.01607120924239      0.54426308087445      0.10946090135261
| 12>   O   -3.32146345840127      0.55266838475499      0.33643493164423
| 13>   O   -2.25117580360775     -1.84270600074325     -0.16196470732711
| 14>   C   2.18091518631776      0.05988863699450     -0.84248231380121
| 15>   C   3.21553833271854      0.34560573748439      0.26377995763381
| 16>   N   3.35827445501624     -0.77114992830214      1.26076169906696
| 17>   H   0.25956525232934     -1.93831288225483     -0.67336172472900
| 18>   H   -1.56422803499401      2.65813235016232      0.29012605471271
| 19>   H   0.83056239962680      2.34449382083632     -0.20540777151098
| 20>   H   -3.68870950898199      1.44820591040065      0.49844451673520
| 21>   H   -3.19242395662598     -1.61242749774630      0.01685685266892
| 22>   H   2.37835338852518      0.79918634548306     -1.63821574514796
| 23>   H   2.37999335280448     -0.92575821112770     -1.29019883030445
| 24>   H   4.19681998522107      0.49273320301348     -0.20403869765913
| 25>   H   2.97314911982827      1.26008119626598      0.82102236010740
| 26>   H   3.55395635603282     -1.64790757158963      0.75814067126543
| 27>   H   2.46580170537062     -0.92521420734685      1.74780600806636
| 28>   Cu2  4.75620522460237     -0.56523824922302      2.59386574462450
| 29> *
| 30> 
| 31> $new_job
| 32> 
| 33> ! PBE D3 def2-TZVP opt numfreq PModel NOAUTOSTART
| 34> %pal nprocs=16 end
| 35> %geom maxiter=150 end
| 36> %base "deprotonated"
| 37> *xyz 1 2
| 38>   O   2.27054711982522     -1.54535186213340      0.21712744827373
| 39>   O   2.79697614870138      0.95910868163265      0.78407817656150
| 40>   N   -2.78159857047263      0.42968436470313      1.28200042978719
| 41>   C   -2.28905785257304     -0.35799480303737     -1.09512830632639
| 42>   C   -0.83336910610524     -0.01510446270465     -0.91384371161466
| 43>   C   -2.92931177409031     -0.68469351742306      0.27237875557797
| 44>   C   0.10012177354785     -1.01106428490462     -0.60305908544411
| 45>   C   -0.46978557895796      1.37538207710640     -0.78690147083414
| 46>   C   1.34216648504833     -0.65679019373823     -0.07398330888289
| 47>   C   0.70118876174123      1.76217425608619     -0.09251590554295
| 48>   C   1.68959795310820      0.74787939173017      0.25763632249604
| 49>   H   -2.41501669487341     -1.24796761931412     -1.72962351661294
| 50>   H   -2.82840221508955      0.46826048313309     -1.58245870788837
| 51>   H   -2.43423121647364     -1.56444996229423      0.70450479585810
| 52>   H   -3.99511878275427     -0.92314259306791      0.14354563071678
| 53>   H   -0.14705676492294     -2.06757710097807     -0.72719818609238
| 54>   H   -1.11949005594417      2.13350781470995     -1.23384515616999
| 55>   H   1.00427350682675      2.80883845966143     -0.03055729407876
| 56>   H   -3.03897179402171      0.06921449875639      2.20703385618770
| 57>   H   -3.47021257840580      1.16359920262512      1.07798127255428
| 58>   H   3.02044267059459     -1.00859693762888      0.60459913303409
| 59>   Cu2  -0.96941478670885      1.26041798508001      1.17092742344019
| 60> *
| 61> 
| 62> $new_job
| 63> 
| 64> ! PBE D3 def2-TZVP opt numfreq PModel NOAUTOSTART
| 65> %pal nprocs=16 end
| 66> %geom maxiter=150 end
| 67> %base "2x_deprotonated"
| 68> *xyz 0 2
| 69>   O   2.40386288539202     -1.42707952010735      0.12653872555214
| 70>   O   2.79890511261258      1.27296175361264      0.86874643433560
| 71>   N   -2.44641908744850     -0.29611420182132      1.43466083579476
| 72>   C   -2.20970847505583     -0.45331952805550     -1.08553296777596
| 73>   C   -0.79079700376041      0.00761721863489     -0.84711791228808
| 74>   C   -3.12559824370146     -0.09608885029799      0.10893738325345
| 75>   C   0.20243453113486     -0.91804114474024     -0.56925923974605
| 76>   C   -0.56193051363717      1.39998768731227     -0.56546997301692
| 77>   C   1.51372247592659     -0.58093186403022     -0.02897219124065
| 78>   C   0.58576929667829      1.79577908713229      0.17857539368487
| 79>   C   1.73064109240766      0.88401961322900      0.39036484999335
| 80>   H   -2.65704389587806      0.00338113578515     -1.98350368418451
| 81>   H   -2.21322151577082     -1.54197377700343     -1.24461950885868
| 82>   H   -4.05542004612029     -0.68633709760263      0.06027280347353
| 83>   H   -3.40001889639515      0.96653567797939      0.06564389589536
| 84>   H   0.02048910412102     -1.98268838980113     -0.74437410232790
| 85>   H   -1.29281016579061      2.14677777011889     -0.88736638435600
| 86>   H   0.78291467039247      2.85539149572222      0.35667039963852
| 87>   H   -2.17202450454476     -1.27851825973403      1.54093901044090
| 88>   H   -3.10909226129709     -0.09713625924645      2.18860112746077
| 89>   Cu2  -0.76632597826526      0.81594887191353      1.42041337127151
| 90> **                         ****END OF INPUT****
================================================================================


                 $$$$$$$$$$$$$$$$$$$$$$$$$$$$$$$$$$$$$$$$$$$$$$ 
                 $ THERE ARE  3 JOBS TO BE PROCESSED THIS RUN $
                 $$$$$$$$$$$$$$$$$$$$$$$$$$$$$$$$$$$$$$$$$$$$$$ 




                 $$$$$$$$$$$$$$$$  JOB NUMBER  1 $$$$$$$$$$$$$$


                       *****************************
                       * Geometry Optimization Run *
                       *****************************

Geometry optimization settings:
Update method            Update   .... BFGS
Choice of coordinates    CoordSys .... Z-matrix Internals
Initial Hessian          InHess   .... Almoef's Model

Convergence Tolerances:
Energy Change            TolE     ....  5.0000e-06 Eh
Max. Gradient            TolMAXG  ....  3.0000e-04 Eh/bohr
RMS Gradient             TolRMSG  ....  1.0000e-04 Eh/bohr
Max. Displacement        TolMAXD  ....  4.0000e-03 bohr
RMS Displacement         TolRMSD  ....  2.0000e-03 bohr
Strict Convergence                ....  False
------------------------------------------------------------------------------
                        ORCA OPTIMIZATION COORDINATE SETUP
------------------------------------------------------------------------------

The optimization will be done in new redundant internal coordinates
Making redundant internal coordinates   ...  (new redundants) done
Evaluating the initial hessian          ...  (Almloef) done
Evaluating the coordinates              ...  done
Calculating the B-matrix                .... done
Calculating the G-matrix                .... done
Diagonalizing the G-matrix              .... done
Small eigenvalue found = 1.379e-02
Small eigenvalue found = 2.230e-02
The first mode is                       ....   50
The number of degrees of freedom        ....   63

    -----------------------------------------------------------------
                    Redundant Internal Coordinates


    -----------------------------------------------------------------
         Definition                    Initial Value    Approx d2E/dq
    -----------------------------------------------------------------
      1. B(C   2,C   0)                  1.4089         0.582791   
      2. B(C   3,C   0)                  1.3836         0.639574   
      3. B(C   4,C   3)                  1.4426         0.515068   
      4. B(C   4,C   1)                  1.3801         0.647844   
      5. B(C   5,C   2)                  1.4573         0.487963   
      6. B(C   5,C   1)                  1.4037         0.594146   
      7. B(O   6,C   5)                  1.3250         0.710513   
      8. B(O   7,C   2)                  1.3162         0.733928   
      9. B(C   8,C   3)                  1.5056         0.408607   
     10. B(C   9,C   8)                  1.5414         0.358261   
     11. B(N  10,C   9)                  1.5038         0.368362   
     12. B(H  11,C   0)                  1.0912         0.358468   
     13. B(H  12,C   1)                  1.0918         0.357759   
     14. B(H  13,C   4)                  1.0921         0.357378   
     15. B(H  14,O   6)                  0.9814         0.480683   
     16. B(H  15,O   7)                  0.9854         0.473687   
     17. B(H  16,C   8)                  1.1040         0.342094   
     18. B(H  17,C   8)                  1.1007         0.346196   
     19. B(H  18,C   9)                  1.0970         0.350955   
     20. B(H  19,C   9)                  1.0980         0.349710   
     21. B(H  20,N  10)                  1.0294         0.402972   
     22. B(H  21,N  10)                  1.0283         0.404535   
     23. B(Cu 22,N  10)                  1.9426         0.743582   
     24. A(C   2,C   0,C   3)          119.9840         0.431668   
     25. A(C   3,C   0,H  11)          122.2353         0.354499   
     26. A(C   2,C   0,H  11)          117.7081         0.348970   
     27. A(C   4,C   1,H  12)          120.9750         0.355153   
     28. A(C   5,C   1,H  12)          120.2248         0.349991   
     29. A(C   4,C   1,C   5)          118.7912         0.434170   
     30. A(C   0,C   2,C   5)          119.9468         0.411313   
     31. A(C   5,C   2,O   7)          120.9098         0.425787   
     32. A(C   0,C   2,O   7)          119.1393         0.439600   
     33. A(C   4,C   3,C   8)          119.1639         0.390085   
     34. A(C   0,C   3,C   8)          121.5582         0.405207   
     35. A(C   0,C   3,C   4)          119.1776         0.422220   
     36. A(C   1,C   4,C   3)          122.3743         0.423191   
     37. A(C   3,C   4,H  13)          118.9594         0.341628   
     38. A(C   1,C   4,H  13)          118.6376         0.355089   
     39. A(C   1,C   5,O   6)          126.4262         0.438560   
     40. A(C   1,C   5,C   2)          119.7179         0.412724   
     41. A(C   2,C   5,O   6)          113.8550         0.423325   
     42. A(C   5,O   6,H  14)          113.7498         0.373813   
     43. A(C   2,O   7,H  15)          112.0758         0.374961   
     44. A(C   3,C   8,C   9)          116.5866         0.366334   
     45. A(C   3,C   8,H  17)          110.1760         0.327011   
     46. A(C   9,C   8,H  16)          105.8512         0.319409   
     47. A(C   3,C   8,H  16)          108.0266         0.326370   
     48. A(C   9,C   8,H  17)          109.6644         0.320032   
     49. A(H  16,C   8,H  17)          105.9106         0.286739   
     50. A(C   8,C   9,H  19)          111.7436         0.320560   
     51. A(N  10,C   9,H  18)          107.3025         0.320291   
     52. A(C   8,C   9,H  18)          108.6154         0.320747   
     53. A(N  10,C   9,H  19)          107.6373         0.320105   
     54. A(C   8,C   9,N  10)          113.6950         0.357673   
     55. A(H  18,C   9,H  19)          107.5900         0.288342   
     56. A(H  21,N  10,Cu 22)          108.3849         0.409393   
     57. A(H  20,N  10,Cu 22)          106.7717         0.409112   
     58. A(C   9,N  10,Cu 22)          116.3939         0.452929   
     59. A(H  20,N  10,H  21)          105.5832         0.296644   
     60. A(C   9,N  10,H  21)          110.0525         0.325066   
     61. A(C   9,N  10,H  20)          109.0771         0.324860   
     62. D(O   7,C   2,C   0,C   3)    179.0104         0.023345   
     63. D(O   7,C   2,C   0,H  11)      2.0408         0.023345   
     64. D(C   5,C   2,C   0,C   3)     -0.2577         0.023345   
     65. D(C   5,C   2,C   0,H  11)   -177.2273         0.023345   
     66. D(C   8,C   3,C   0,H  11)      1.4289         0.028418   
     67. D(C   4,C   3,C   0,C   2)      0.9281         0.028418   
     68. D(C   8,C   3,C   0,C   2)   -175.3992         0.028418   
     69. D(C   4,C   3,C   0,H  11)    177.7562         0.028418   
     70. D(C   1,C   4,C   3,C   8)    175.4602         0.018086   
     71. D(H  13,C   4,C   1,H  12)     -0.6290         0.029209   
     72. D(C   1,C   4,C   3,C   0)     -0.9560         0.018086   
     73. D(C   3,C   4,C   1,C   5)      0.2538         0.029209   
     74. D(H  13,C   4,C   1,C   5)    178.2809         0.029209   
     75. D(H  13,C   4,C   3,C   0)   -178.9770         0.018086   
     76. D(C   3,C   4,C   1,H  12)   -178.6561         0.029209   
     77. D(H  13,C   4,C   3,C   8)     -2.5608         0.018086   
     78. D(O   6,C   5,C   2,O   7)     -0.0228         0.016212   
     79. D(C   1,C   5,C   2,O   7)   -179.7006         0.016212   
     80. D(O   6,C   5,C   1,H  12)     -0.2798         0.024310   
     81. D(O   6,C   5,C   1,C   4)   -179.1981         0.024310   
     82. D(C   1,C   5,C   2,C   0)     -0.4456         0.016212   
     83. D(O   6,C   5,C   2,C   0)    179.2321         0.016212   
     84. D(C   2,C   5,C   1,H  12)    179.3539         0.024310   
     85. D(C   2,C   5,C   1,C   4)      0.4356         0.024310   
     86. D(H  14,O   6,C   5,C   2)   -178.8279         0.037915   
     87. D(H  14,O   6,C   5,C   1)      0.8243         0.037915   
     88. D(H  15,O   7,C   2,C   5)      0.8903         0.040722   
     89. D(H  15,O   7,C   2,C   0)   -178.3706         0.040722   
     90. D(H  16,C   8,C   3,C   0)    127.3641         0.012369   
     91. D(C   9,C   8,C   3,C   4)     69.9881         0.012369   
     92. D(C   9,C   8,C   3,C   0)   -113.6841         0.012369   
     93. D(H  17,C   8,C   3,C   4)   -164.2230         0.012369   
     94. D(H  17,C   8,C   3,C   0)     12.1048         0.012369   
     95. D(H  16,C   8,C   3,C   4)    -48.9637         0.012369   
     96. D(H  19,C   9,C   8,H  16)     73.5089         0.010304   
     97. D(H  19,C   9,C   8,C   3)    -46.6123         0.010304   
     98. D(H  18,C   9,C   8,H  17)     68.8106         0.010304   
     99. D(H  18,C   9,C   8,H  16)    -45.0233         0.010304   
    100. D(H  18,C   9,C   8,C   3)   -165.1445         0.010304   
    101. D(N  10,C   9,C   8,H  17)    -50.5664         0.010304   
    102. D(N  10,C   9,C   8,H  16)   -164.4003         0.010304   
    103. D(H  19,C   9,C   8,H  17)   -172.6571         0.010304   
    104. D(N  10,C   9,C   8,C   3)     75.4785         0.010304   
    105. D(Cu 22,N  10,C   9,H  19)    -61.1125         0.012451   
    106. D(Cu 22,N  10,C   9,H  18)     54.4300         0.012451   
    107. D(Cu 22,N  10,C   9,C   8)    174.5516         0.012451   
    108. D(H  21,N  10,C   9,H  19)     62.6650         0.012451   
    109. D(H  21,N  10,C   9,H  18)    178.2074         0.012451   
    110. D(H  21,N  10,C   9,C   8)    -61.6709         0.012451   
    111. D(H  20,N  10,C   9,H  19)    178.0579         0.012451   
    112. D(H  20,N  10,C   9,H  18)    -66.3997         0.012451   
    113. D(H  20,N  10,C   9,C   8)     53.7220         0.012451   
    -----------------------------------------------------------------

Number of atoms                         .... 23
Number of degrees of freedom            .... 113

         *************************************************************
         *                GEOMETRY OPTIMIZATION CYCLE   1            *
         *************************************************************
---------------------------------
CARTESIAN COORDINATES (ANGSTROEM)
---------------------------------
  C     -0.099731   -0.936409   -0.432756
  C     -1.164314    1.659966    0.101162
  C     -1.472912   -0.781284   -0.158098
  C      0.730627    0.170175   -0.453468
  C      0.175417    1.471428   -0.171524
  C     -2.016071    0.544263    0.109461
  O     -3.321463    0.552668    0.336435
  O     -2.251176   -1.842706   -0.161965
  C      2.180915    0.059889   -0.842482
  C      3.215538    0.345606    0.263780
  N      3.358274   -0.771150    1.260762
  H      0.259565   -1.938313   -0.673362
  H     -1.564228    2.658132    0.290126
  H      0.830562    2.344494   -0.205408
  H     -3.688710    1.448206    0.498445
  H     -3.192424   -1.612427    0.016857
  H      2.378353    0.799186   -1.638216
  H      2.379993   -0.925758   -1.290199
  H      4.196820    0.492733   -0.204039
  H      2.973149    1.260081    0.821022
  H      3.553956   -1.647908    0.758141
  H      2.465802   -0.925214    1.747806
  Cu     4.756205   -0.565238    2.593866

----------------------------
CARTESIAN COORDINATES (A.U.)
----------------------------
  NO LB      ZA    FRAG     MASS         X           Y           Z
   0 C     6.0000    0    12.011   -0.188465   -1.769556   -0.817791
   1 C     6.0000    0    12.011   -2.200235    3.136882    0.191169
   2 C     6.0000    0    12.011   -2.783401   -1.476413   -0.298763
   3 C     6.0000    0    12.011    1.380684    0.321583   -0.856930
   4 C     6.0000    0    12.011    0.331491    2.780597   -0.324133
   5 C     6.0000    0    12.011   -3.809822    1.028508    0.206851
   6 O     8.0000    0    15.999   -6.276656    1.044392    0.635770
   7 O     8.0000    0    15.999   -4.254106   -3.482210   -0.306069
   8 C     6.0000    0    12.011    4.121332    0.113173   -1.592061
   9 C     6.0000    0    12.011    6.076487    0.653100    0.498472
  10 N     7.0000    0    14.007    6.346219   -1.457262    2.382494
  11 H     1.0000    0     1.008    0.490507   -3.662881   -1.272469
  12 H     1.0000    0     1.008   -2.955963    5.023142    0.548259
  13 H     1.0000    0     1.008    1.569535    4.430451   -0.388164
  14 H     1.0000    0     1.008   -6.970651    2.736713    0.941924
  15 H     1.0000    0     1.008   -6.032807   -3.047046    0.031855
  16 H     1.0000    0     1.008    4.494437    1.510243   -3.095779
  17 H     1.0000    0     1.008    4.497536   -1.749429   -2.438122
  18 H     1.0000    0     1.008    7.930840    0.931131   -0.385577
  19 H     1.0000    0     1.008    5.618438    2.381208    1.551507
  20 H     1.0000    0     1.008    6.716004   -3.114094    1.432678
  21 H     1.0000    0     1.008    4.659690   -1.748401    3.302875
  22 Cu   29.0000    0    63.550    8.987925   -1.068145    4.901696

--------------------------------
INTERNAL COORDINATES (ANGSTROEM)
--------------------------------
 C      0   0   0     0.000000000000     0.00000000     0.00000000
 C      1   0   0     2.856496061524     0.00000000     0.00000000
 C      1   2   0     1.408945071454    60.01727936     0.00000000
 C      1   2   3     1.383636699250    59.96841459   179.52246866
 C      2   1   3     1.380139376550    58.47471630   179.99510958
 C      2   1   3     1.403692359150    60.31684977   359.77264362
 O      6   2   1     1.325004446681   126.42617108   180.58550126
 O      3   1   2     1.316178299690   119.13926838   179.48766877
 C      4   1   2     1.505600389717   121.55821407   184.12328766
 C      9   4   1     1.541394021586   116.58659075   246.31593226
 N     10   9   4     1.503824926787   113.69502149    75.47847665
 H      1   2   3     1.091236241473   176.81041483    45.13623696
 H      2   1   3     1.091775593625   179.07509281   233.71110995
 H      5   2   1     1.092065196709   118.63755176   178.50140201
 H      7   6   2     0.981378737883   113.74977367     0.82434117
 H      8   3   1     0.985369689417   112.07575573   181.62943890
 H      9   4   1     1.103963151210   108.02662951   127.36414623
 H      9   4   1     1.100718812747   110.17602594    12.10481753
 H     10   9   4     1.097002491743   108.61540786   194.85549873
 H     10   9   4     1.097969485165   111.74355918   313.38771622
 H     11  10   9     1.029380041111   109.07709704    53.72196070
 H     11  10   9     1.028326587163   110.05246702   298.32907618
 Cu    11  10   9     1.942621026453   116.39391945   174.55160789

---------------------------
INTERNAL COORDINATES (A.U.)
---------------------------
 C      0   0   0     0.000000000000     0.00000000     0.00000000
 C      1   0   0     5.397995258904     0.00000000     0.00000000
 C      1   2   0     2.662520322786    60.01727936     0.00000000
 C      1   2   3     2.614694430426    59.96841459   179.52246866
 C      2   1   3     2.608085448321    58.47471630   179.99510958
 C      2   1   3     2.652594135072    60.31684977   359.77264362
 O      6   2   1     2.503895530455   126.42617108   180.58550126
 O      3   1   2     2.487216529825   119.13926838   179.48766877
 C      4   1   2     2.845172403690   121.55821407   184.12328766
 C      9   4   1     2.912812565261   116.58659075   246.31593226
 N     10   9   4     2.841817264992   113.69502149    75.47847665
 H      1   2   3     2.062137643793   176.81041483    45.13623696
 H      2   1   3     2.063156871651   179.07509281   233.71110995
 H      5   2   1     2.063704142166   118.63755176   178.50140201
 H      7   6   2     1.854537048251   113.74977367     0.82434117
 H      8   3   1     1.862078853666   112.07575573   181.62943890
 H      9   4   1     2.086188017728   108.02662951   127.36414623
 H      9   4   1     2.080057106546   110.17602594    12.10481753
 H     10   9   4     2.073034277624   108.61540786   194.85549873
 H     10   9   4     2.074861630365   111.74355918   313.38771622
 H     11  10   9     1.945246365424   109.07709704    53.72196070
 H     11  10   9     1.943255625968   110.05246702   298.32907618
 Cu    11  10   9     3.671021721994   116.39391945   174.55160789

---------------------
BASIS SET INFORMATION
---------------------
There are 5 groups of distinct atoms

 Group   1 Type C   : 11s6p2d1f contracted to 5s3p2d1f pattern {62111/411/11/1}
 Group   2 Type O   : 11s6p2d1f contracted to 5s3p2d1f pattern {62111/411/11/1}
 Group   3 Type N   : 11s6p2d1f contracted to 5s3p2d1f pattern {62111/411/11/1}
 Group   4 Type H   : 5s1p contracted to 3s1p pattern {311/1}
 Group   5 Type Cu  : 17s11p7d1f contracted to 6s4p4d1f pattern {842111/6311/4111/1}

Atom   0C    basis set group =>   1
Atom   1C    basis set group =>   1
Atom   2C    basis set group =>   1
Atom   3C    basis set group =>   1
Atom   4C    basis set group =>   1
Atom   5C    basis set group =>   1
Atom   6O    basis set group =>   2
Atom   7O    basis set group =>   2
Atom   8C    basis set group =>   1
Atom   9C    basis set group =>   1
Atom  10N    basis set group =>   3
Atom  11H    basis set group =>   4
Atom  12H    basis set group =>   4
Atom  13H    basis set group =>   4
Atom  14H    basis set group =>   4
Atom  15H    basis set group =>   4
Atom  16H    basis set group =>   4
Atom  17H    basis set group =>   4
Atom  18H    basis set group =>   4
Atom  19H    basis set group =>   4
Atom  20H    basis set group =>   4
Atom  21H    basis set group =>   4
Atom  22Cu   basis set group =>   5
---------------------------------
AUXILIARY/J BASIS SET INFORMATION
---------------------------------
There are 5 groups of distinct atoms

 Group   1 Type C   : 12s5p4d2f1g contracted to 6s4p3d1f1g pattern {711111/2111/211/2/1}
 Group   2 Type O   : 12s5p4d2f1g contracted to 6s4p3d1f1g pattern {711111/2111/211/2/1}
 Group   3 Type N   : 12s5p4d2f1g contracted to 6s4p3d1f1g pattern {711111/2111/211/2/1}
 Group   4 Type H   : 5s2p1d contracted to 3s1p1d pattern {311/2/1}
 Group   5 Type Cu  : 19s5p5d3f3g contracted to 8s5p4d3f3g pattern {121111111/11111/2111/111/111}

Atom   0C    basis set group =>   1
Atom   1C    basis set group =>   1
Atom   2C    basis set group =>   1
Atom   3C    basis set group =>   1
Atom   4C    basis set group =>   1
Atom   5C    basis set group =>   1
Atom   6O    basis set group =>   2
Atom   7O    basis set group =>   2
Atom   8C    basis set group =>   1
Atom   9C    basis set group =>   1
Atom  10N    basis set group =>   3
Atom  11H    basis set group =>   4
Atom  12H    basis set group =>   4
Atom  13H    basis set group =>   4
Atom  14H    basis set group =>   4
Atom  15H    basis set group =>   4
Atom  16H    basis set group =>   4
Atom  17H    basis set group =>   4
Atom  18H    basis set group =>   4
Atom  19H    basis set group =>   4
Atom  20H    basis set group =>   4
Atom  21H    basis set group =>   4
Atom  22Cu   basis set group =>   5
No protocol specified


           ************************************************************
           *        Program running with 16 parallel MPI-processes    *
           *              working on a common directory               *
           ************************************************************
------------------------------------------------------------------------------
                           ORCA GTO INTEGRAL CALCULATION
                           -- RI-GTO INTEGRALS CHOSEN --
------------------------------------------------------------------------------
------------------------------------------------------------------------------
                   ___                                                        
                  /   \      - P O W E R E D   B Y -                         
                 /     \                                                     
                 |  |  |   _    _      __       _____    __    __             
                 |  |  |  | |  | |    /  \     |  _  \  |  |  /  |          
                  \  \/   | |  | |   /    \    | | | |  |  | /  /          
                 / \  \   | |__| |  /  /\  \   | |_| |  |  |/  /          
                |  |  |   |  __  | /  /__\  \  |    /   |      \           
                |  |  |   | |  | | |   __   |  |    \   |  |\   \          
                \     /   | |  | | |  |  |  |  | |\  \  |  | \   \       
                 \___/    |_|  |_| |__|  |__|  |_| \__\ |__|  \__/        
                                                                              
                      - O R C A' S   B I G   F R I E N D -                    
                                      &                                       
                       - I N T E G R A L  F E E D E R -                       
                                                                              
 v1 FN, 2020, v2 2021                                                         
------------------------------------------------------------------------------


Reading SHARK input file neutral.SHARKINP.tmp ... ok
----------------------
SHARK INTEGRAL PACKAGE
----------------------

Number of atoms                             ...     23
Number of basis functions                   ...    452
Number of shells                            ...    180
Maximum angular momentum                    ...      3
Integral batch strategy                     ... SHARK/LIBINT Hybrid
RI-J (if used) integral strategy            ... SPLIT-RIJ (Revised 2003 algorithm where possible)
Printlevel                                  ...      1
Contraction scheme used                     ... SEGMENTED contraction
Coulomb Range Separation                    ... NOT USED
Exchange Range Separation                   ... NOT USED
Finite Nucleus Model                        ... NOT USED
Auxiliary Coulomb fitting basis             ... AVAILABLE
   # of basis functions in Aux-J            ...    751
   # of shells in Aux-J                     ...    243
   Maximum angular momentum in Aux-J        ...      4
Auxiliary J/K fitting basis                 ... NOT available
Auxiliary Correlation fitting basis         ... NOT available
Auxiliary 'external' fitting basis          ... NOT available
Integral threshold                          ...     2.500000e-11
Primitive cut-off                           ...     2.500000e-12
Primitive pair pre-selection threshold      ...     2.500000e-12

Calculating pre-screening integrals         ... done (  0.1 sec) Dimension = 180
Organizing shell pair data                  ... done (  0.4 sec)
Shell pair information
Total number of shell pairs                 ...     16290
Shell pairs after pre-screening             ...     13086
Total number of primitive shell pairs       ...     52337
Primitive shell pairs kept                  ...     29051
          la=0 lb=0:   3520 shell pairs
          la=1 lb=0:   3691 shell pairs
          la=1 lb=1:    994 shell pairs
          la=2 lb=0:   1948 shell pairs
          la=2 lb=1:   1028 shell pairs
          la=2 lb=2:    280 shell pairs
          la=3 lb=0:    862 shell pairs
          la=3 lb=1:    463 shell pairs
          la=3 lb=2:    241 shell pairs
          la=3 lb=3:     59 shell pairs

Calculating one electron integrals          ... done (  0.0 sec)
Calculating RI/J V-Matrix + Cholesky decomp.... done (  0.0 sec)
Calculating Nuclear repulsion               ... done (  0.0 sec) ENN=    864.791819770324 Eh

SHARK setup successfully completed in   0.8 seconds

Maximum memory used throughout the entire GTOINT-calculation: 29.5 MB
No protocol specified


           ************************************************************
           *        Program running with 16 parallel MPI-processes    *
           *              working on a common directory               *
           ************************************************************
-------------------------------------------------------------------------------
                                 ORCA SCF
-------------------------------------------------------------------------------

------------
SCF SETTINGS
------------
Hamiltonian:
 Density Functional     Method          .... DFT(GTOs)
 Exchange Functional    Exchange        .... PBE
   PBE kappa parameter   XKappa         ....  0.804000
   PBE mue parameter    XMuePBE         ....  0.219520
 Correlation Functional Correlation     .... PBE
   PBE beta parameter  CBetaPBE         ....  0.066725
 LDA part of GGA corr.  LDAOpt          .... PW91-LDA
 Gradients option       PostSCFGGA      .... off
   Density functional embedding theory  .... OFF
   NL short-range parameter             ....  6.400000
 RI-approximation to the Coulomb term is turned on
   Number of AuxJ basis functions       .... 751


General Settings:
 Integral files         IntName         .... neutral
 Hartree-Fock type      HFTyp           .... UHF
 Total Charge           Charge          ....    2
 Multiplicity           Mult            ....    2
 Number of Electrons    NEL             ....  109
 Basis Dimension        Dim             ....  452
 Nuclear Repulsion      ENuc            ....    864.7918197703 Eh

Convergence Acceleration:
 DIIS                   CNVDIIS         .... on
   Start iteration      DIISMaxIt       ....    12
   Startup error        DIISStart       ....  0.200000
   # of expansion vecs  DIISMaxEq       ....     5
   Bias factor          DIISBfac        ....   1.050
   Max. coefficient     DIISMaxC        ....  10.000
 Trust-Rad. Augm. Hess. CNVTRAH         .... auto
   Auto Start mean grad. ratio tolernc. ....  1.125000
   Auto Start start iteration           ....    20
   Auto Start num. interpolation iter.  ....    10
   Max. Number of Micro iterations      ....    16
   Max. Number of Macro iterations      .... Maxiter - #DIIS iter
   Number of Davidson start vectors     ....     2
   Converg. threshold I  (grad. norm)   ....   1.000e-05
   Converg. threshold II (energy diff.) ....   1.000e-08
   Grad. Scal. Fac. for Micro threshold ....   0.100
   Minimum threshold for Micro iter.    ....   0.010
   NR start threshold (gradient norm)   ....   0.001
   Initial trust radius                 ....   0.400
   Minimum AH scaling param. (alpha)    ....   1.000
   Maximum AH scaling param. (alpha)    .... 1000.000
   Orbital update algorithm             .... Taylor
   White noise on init. David. guess    .... on
   Maximum white noise                  ....   0.010
   Quad. conv. algorithm                .... NR
 SOSCF                  CNVSOSCF        .... off
 Level Shifting         CNVShift        .... on
   Level shift para.    LevelShift      ....    0.2500
   Turn off err/grad.   ShiftErr        ....    0.0010
 Zerner damping         CNVZerner       .... off
 Static damping         CNVDamp         .... on
   Fraction old density DampFac         ....    0.7000
   Max. Damping (<1)    DampMax         ....    0.9800
   Min. Damping (>=0)   DampMin         ....    0.0000
   Turn off err/grad.   DampErr         ....    0.1000
 Fernandez-Rico         CNVRico         .... off

SCF Procedure:
 Maximum # iterations   MaxIter         ....   125
 SCF integral mode      SCFMode         .... Direct
   Integral package                     .... SHARK and LIBINT hybrid scheme
 Reset frequency        DirectResetFreq ....    20
 Integral Threshold     Thresh          ....  2.500e-11 Eh
 Primitive CutOff       TCut            ....  2.500e-12 Eh

Convergence Tolerance:
 Convergence Check Mode ConvCheckMode   .... Total+1el-Energy
 Convergence forced     ConvForced      .... 0
 Energy Change          TolE            ....  1.000e-08 Eh
 1-El. energy change                    ....  1.000e-05 Eh
 DIIS Error             TolErr          ....  5.000e-07


Diagonalization of the overlap matrix:
Smallest eigenvalue                        ... 1.030e-05
Time for diagonalization                   ...    0.046 sec
Threshold for overlap eigenvalues          ... 1.000e-08
Number of eigenvalues below threshold      ... 0
Time for construction of square roots      ...    0.029 sec
Total time needed                          ...    0.076 sec

Time for model grid setup =    0.181 sec

------------------------------
INITIAL GUESS: MODEL POTENTIAL
------------------------------
Loading Hartree-Fock densities                     ... done
Calculating cut-offs                               ... done
Initializing the effective Hamiltonian             ... done
Setting up the integral package (SHARK)            ... done
Starting the Coulomb interaction                   ... done (   0.2 sec)
Reading the grid                                   ... done
Mapping shells                                     ... done
Starting the XC term evaluation                    ... done (   0.1 sec)
  promolecular density results
     # of electrons  =    111.000450443
     EX              =   -132.525027196
     EC              =     -4.092796329
     EX+EC           =   -136.617823525
Transforming the Hamiltonian                       ... done (   0.0 sec)
Diagonalizing the Hamiltonian                      ... done (   0.0 sec)
Back transforming the eigenvectors                 ... done (   0.0 sec)
Now organizing SCF variables                       ... done
                      ------------------
                      INITIAL GUESS DONE (   0.6 sec)
                      ------------------
-------------------
DFT GRID GENERATION
-------------------

General Integration Accuracy     IntAcc      ... 4.388
Radial Grid Type                 RadialGrid  ... OptM3 with GC (2021)
Angular Grid (max. ang.)         AngularGrid ... 4 (Lebedev-302)
Angular grid pruning method      GridPruning ... 4 (adaptive)
Weight generation scheme         WeightScheme... Becke
Basis function cutoff            BFCut       ... 1.0000e-11
Integration weight cutoff        WCut        ... 1.0000e-14
Angular grids for H and He will be reduced by one unit
Partially contracted basis set               ... off
Rotationally invariant grid construction     ... off

Total number of grid points                  ...   112417
Total number of batches                      ...     1769
Average number of points per batch           ...       63
Average number of grid points per atom       ...     4888
Time for grid setup =    0.715 sec

--------------
SCF ITERATIONS
--------------
ITER       Energy         Delta-E        Max-DP      RMS-DP      [F,P]     Damp
               ***  Starting incremental Fock matrix formation  ***
  0  -2155.7055279984   0.000000000000 0.02128922  0.00042897  0.1912086 0.7000
  1  -2155.8178100212  -0.112282022846 0.02332546  0.00029853  0.0730459 0.7000
                               ***Turning on DIIS***
  2  -2155.8533883726  -0.035578351358 0.04187540  0.00049960  0.0297770 0.0000
  3  -2155.9160098445  -0.062621471930 0.01871312  0.00020423  0.0507620 0.0000
  4  -2155.9313281454  -0.015318300879 0.00683824  0.00008275  0.0139717 0.0000
  5  -2155.9327381626  -0.001410017190 0.00383768  0.00003888  0.0044146 0.0000
  6  -2155.9328411096  -0.000102947011 0.00144285  0.00001349  0.0039023 0.0000
  7  -2155.9328727349  -0.000031625309 0.00072341  0.00000620  0.0030383 0.0000
  8  -2155.9328869560  -0.000014221089 0.00142952  0.00001734  0.0007386 0.0000
  9  -2155.9328921819  -0.000005225900 0.00012967  0.00000213  0.0023040 0.0000
 10  -2155.9328977634  -0.000005581496 0.00011875  0.00000168  0.0012801 0.0000
 11  -2155.9328996567  -0.000001893285 0.00034022  0.00000345  0.0004546 0.0000
 12  -2155.9328998632  -0.000000206561 0.00013416  0.00000162  0.0004985 0.0000
 13  -2155.9329003084  -0.000000445160 0.00006078  0.00000058  0.0001174 0.0000
 14  -2155.9329003717  -0.000000063259 0.00002621  0.00000034  0.0000544 0.0000
 15  -2155.9329003865  -0.000000014797 0.00001600  0.00000024  0.0000364 0.0000
 16  -2155.9329003975  -0.000000011012 0.00001774  0.00000021  0.0000337 0.0000
 17  -2155.9329003905   0.000000006963 0.00000693  0.00000013  0.0000143 0.0000
 18  -2155.9329003967  -0.000000006219 0.00001416  0.00000014  0.0000104 0.0000
 19  -2155.9329003813   0.000000015387 0.00004298  0.00000059  0.0000061 0.0000
               *** Restarting incremental Fock matrix formation ***
                                   *** Resetting DIIS ***
 20  -2155.9329004049  -0.000000023536 0.00002484  0.00000036  0.0000016 0.0000
 21  -2155.9329003984   0.000000006485 0.00000862  0.00000008  0.0000070 0.0000
 22  -2155.9329003896   0.000000008776 0.00000808  0.00000010  0.0000016 0.0000
                            ***DIIS convergence achieved***

               *****************************************************
               *                     SUCCESS                       *
               *           SCF CONVERGED AFTER  23 CYCLES          *
               *****************************************************


----------------
TOTAL SCF ENERGY
----------------

Total Energy       :        -2155.93290038 Eh          -58665.91674 eV

Components:
Nuclear Repulsion  :          864.79181977 Eh           23532.18177 eV
Electronic Energy  :        -3020.72472015 Eh          -82198.09851 eV
One Electron Energy:        -4673.96388810 Eh         -127185.02336 eV
Two Electron Energy:         1653.23916794 Eh           44986.92485 eV

Virial components:
Potential Energy   :        -4307.14777729 Eh         -117203.44953 eV
Kinetic Energy     :         2151.21487690 Eh           58537.53279 eV
Virial Ratio       :            2.00219319


DFT components:
N(Alpha)           :       55.000084031697 electrons
N(Beta)            :       54.000073864680 electrons
N(Total)           :      109.000157896377 electrons
E(X)               :     -133.388133118075 Eh       
E(C)               :       -4.040456973714 Eh       
E(XC)              :     -137.428590091789 Eh       
DFET-embed. en.    :        0.000000000000 Eh       

---------------
SCF CONVERGENCE
---------------

  Last Energy change         ...    6.2869e-09  Tolerance :   1.0000e-08
  Last MAX-Density change    ...    2.2049e-05  Tolerance :   1.0000e-07
  Last RMS-Density change    ...    2.0336e-07  Tolerance :   5.0000e-09
  Last DIIS Error            ...    8.1837e-07  Tolerance :   5.0000e-07

             **** THE GBW FILE WAS UPDATED (neutral.gbw) ****
             **** DENSITY neutral.scfp WAS UPDATED ****
             **** ENERGY FILE WAS UPDATED (neutral.en.tmp) ****
----------------------
UHF SPIN CONTAMINATION
----------------------

Warning: in a DFT calculation there is little theoretical justification to 
         calculate <S**2> as in Hartree-Fock theory. We will do it anyways
         but you should keep in mind that the values have only limited relevance

Expectation value of <S**2>     :     0.754188
Ideal value S*(S+1) for S=0.5   :     0.750000
Deviation                       :     0.004188

             **** THE GBW FILE WAS UPDATED (neutral.gbw) ****
             **** DENSITY neutral.scfp WAS UPDATED ****
----------------
ORBITAL ENERGIES
----------------
                 SPIN UP ORBITALS
  NO   OCC          E(Eh)            E(eV) 
   0   1.0000    -321.807438     -8756.8256 
   1   1.0000     -38.569746     -1049.5362 
   2   1.0000     -33.861246      -921.4113 
   3   1.0000     -33.860824      -921.3999 
   4   1.0000     -33.860776      -921.3985 
   5   1.0000     -19.105065      -519.8752 
   6   1.0000     -19.096400      -519.6395 
   7   1.0000     -14.335482      -390.0883 
   8   1.0000     -10.269962      -279.4599 
   9   1.0000     -10.267003      -279.3793 
  10   1.0000     -10.210626      -277.8453 
  11   1.0000     -10.204444      -277.6770 
  12   1.0000     -10.194228      -277.3990 
  13   1.0000     -10.181971      -277.0655 
  14   1.0000     -10.178066      -276.9593 
  15   1.0000     -10.173160      -276.8258 
  16   1.0000      -4.404603      -119.8553 
  17   1.0000      -2.942996       -80.0830 
  18   1.0000      -2.938898       -79.9715 
  19   1.0000      -2.938668       -79.9652 
  20   1.0000      -1.309919       -35.6447 
  21   1.0000      -1.283227       -34.9184 
  22   1.0000      -1.141075       -31.0502 
  23   1.0000      -1.078325       -29.3427 
  24   1.0000      -1.002371       -27.2759 
  25   1.0000      -0.976033       -26.5592 
  26   1.0000      -0.944744       -25.7078 
  27   1.0000      -0.889534       -24.2054 
  28   1.0000      -0.858604       -23.3638 
  29   1.0000      -0.845682       -23.0122 
  30   1.0000      -0.804633       -21.8952 
  31   1.0000      -0.781844       -21.2751 
  32   1.0000      -0.768897       -20.9228 
  33   1.0000      -0.738264       -20.0892 
  34   1.0000      -0.707518       -19.2525 
  35   1.0000      -0.703833       -19.1523 
  36   1.0000      -0.700150       -19.0520 
  37   1.0000      -0.693094       -18.8601 
  38   1.0000      -0.677692       -18.4409 
  39   1.0000      -0.664084       -18.0706 
  40   1.0000      -0.645750       -17.5718 
  41   1.0000      -0.642855       -17.4930 
  42   1.0000      -0.627800       -17.0833 
  43   1.0000      -0.618169       -16.8212 
  44   1.0000      -0.602738       -16.4013 
  45   1.0000      -0.597324       -16.2540 
  46   1.0000      -0.585292       -15.9266 
  47   1.0000      -0.580950       -15.8084 
  48   1.0000      -0.516700       -14.0601 
  49   1.0000      -0.513188       -13.9646 
  50   1.0000      -0.512851       -13.9554 
  51   1.0000      -0.511369       -13.9151 
  52   1.0000      -0.511273       -13.9125 
  53   1.0000      -0.498030       -13.5521 
  54   1.0000      -0.488305       -13.2875 
  55   0.0000      -0.393414       -10.7054 
  56   0.0000      -0.338943        -9.2231 
  57   0.0000      -0.329455        -8.9649 
  58   0.0000      -0.264450        -7.1960 
  59   0.0000      -0.259386        -7.0583 
  60   0.0000      -0.252033        -6.8582 
  61   0.0000      -0.243099        -6.6151 
  62   0.0000      -0.223238        -6.0746 
  63   0.0000      -0.217517        -5.9189 
  64   0.0000      -0.211050        -5.7430 
  65   0.0000      -0.200679        -5.4607 
  66   0.0000      -0.198613        -5.4045 
  67   0.0000      -0.188917        -5.1407 
  68   0.0000      -0.172955        -4.7063 
  69   0.0000      -0.164491        -4.4760 
  70   0.0000      -0.158227        -4.3056 
  71   0.0000      -0.155218        -4.2237 
  72   0.0000      -0.144215        -3.9243 
  73   0.0000      -0.132078        -3.5940 
  74   0.0000      -0.129426        -3.5219 
  75   0.0000      -0.120626        -3.2824 
  76   0.0000      -0.115366        -3.1393 
  77   0.0000      -0.107823        -2.9340 
  78   0.0000      -0.103748        -2.8231 
  79   0.0000      -0.090412        -2.4602 
  80   0.0000      -0.081215        -2.2100 
  81   0.0000      -0.074168        -2.0182 
  82   0.0000      -0.069593        -1.8937 
  83   0.0000      -0.058347        -1.5877 
  84   0.0000      -0.056138        -1.5276 
  85   0.0000      -0.051879        -1.4117 
  86   0.0000      -0.047203        -1.2845 
  87   0.0000      -0.039699        -1.0803 
  88   0.0000      -0.025386        -0.6908 
  89   0.0000      -0.022072        -0.6006 
  90   0.0000      -0.012294        -0.3345 
  91   0.0000      -0.009109        -0.2479 
  92   0.0000       0.004758         0.1295 
  93   0.0000       0.011653         0.3171 
  94   0.0000       0.014592         0.3971 
  95   0.0000       0.026918         0.7325 
  96   0.0000       0.033312         0.9065 
  97   0.0000       0.035507         0.9662 
  98   0.0000       0.045403         1.2355 
  99   0.0000       0.051346         1.3972 
 100   0.0000       0.055808         1.5186 
 101   0.0000       0.065480         1.7818 
 102   0.0000       0.070421         1.9163 
 103   0.0000       0.078581         2.1383 
 104   0.0000       0.083075         2.2606 
 105   0.0000       0.095340         2.5943 
 106   0.0000       0.104244         2.8366 
 107   0.0000       0.117163         3.1882 
 108   0.0000       0.119729         3.2580 
 109   0.0000       0.125547         3.4163 
 110   0.0000       0.138431         3.7669 
 111   0.0000       0.140091         3.8121 
 112   0.0000       0.144609         3.9350 
 113   0.0000       0.154857         4.2139 
 114   0.0000       0.163903         4.4600 
 115   0.0000       0.167375         4.5545 
 116   0.0000       0.177463         4.8290 
 117   0.0000       0.184891         5.0312 
 118   0.0000       0.194407         5.2901 
 119   0.0000       0.200022         5.4429 
 120   0.0000       0.203437         5.5358 
 121   0.0000       0.215363         5.8603 
 122   0.0000       0.230189         6.2638 
 123   0.0000       0.235697         6.4136 
 124   0.0000       0.242623         6.6021 
 125   0.0000       0.243875         6.6362 
 126   0.0000       0.264729         7.2036 
 127   0.0000       0.272892         7.4258 
 128   0.0000       0.280772         7.6402 
 129   0.0000       0.293422         7.9844 
 130   0.0000       0.305363         8.3094 
 131   0.0000       0.312180         8.4949 
 132   0.0000       0.327215         8.9040 
 133   0.0000       0.330477         8.9927 
 134   0.0000       0.341295         9.2871 
 135   0.0000       0.348166         9.4741 
 136   0.0000       0.350611         9.5406 
 137   0.0000       0.377726        10.2785 
 138   0.0000       0.395419        10.7599 
 139   0.0000       0.409719        11.1490 
 140   0.0000       0.423660        11.5284 
 141   0.0000       0.428020        11.6470 
 142   0.0000       0.435278        11.8445 
 143   0.0000       0.454298        12.3621 
 144   0.0000       0.468652        12.7527 
 145   0.0000       0.478812        13.0291 
 146   0.0000       0.485351        13.2071 
 147   0.0000       0.503453        13.6997 
 148   0.0000       0.506044        13.7701 
 149   0.0000       0.516239        14.0476 
 150   0.0000       0.533135        14.5074 
 151   0.0000       0.543976        14.8023 
 152   0.0000       0.552862        15.0441 
 153   0.0000       0.567167        15.4334 
 154   0.0000       0.569884        15.5073 
 155   0.0000       0.574921        15.6444 
 156   0.0000       0.594515        16.1776 
 157   0.0000       0.601820        16.3764 
 158   0.0000       0.612812        16.6755 
 159   0.0000       0.623897        16.9771 
 160   0.0000       0.652214        17.7477 
 161   0.0000       0.664678        18.0868 
 162   0.0000       0.691866        18.8266 
 163   0.0000       0.699932        19.0461 
 164   0.0000       0.707012        19.2388 
 165   0.0000       0.722106        19.6495 
 166   0.0000       0.738133        20.0856 
 167   0.0000       0.753259        20.4972 
 168   0.0000       0.759829        20.6760 
 169   0.0000       0.789159        21.4741 
 170   0.0000       0.793609        21.5952 
 171   0.0000       0.799169        21.7465 
 172   0.0000       0.812796        22.1173 
 173   0.0000       0.835910        22.7463 
 174   0.0000       0.862891        23.4804 
 175   0.0000       0.869672        23.6650 
 176   0.0000       0.872412        23.7395 
 177   0.0000       0.894175        24.3317 
 178   0.0000       0.904693        24.6179 
 179   0.0000       0.929100        25.2821 
 180   0.0000       0.939140        25.5553 
 181   0.0000       0.950214        25.8566 
 182   0.0000       0.973741        26.4969 
 183   0.0000       0.974838        26.5267 
 184   0.0000       0.987207        26.8633 
 185   0.0000       1.003330        27.3020 
 186   0.0000       1.007494        27.4153 
 187   0.0000       1.028206        27.9789 
 188   0.0000       1.031226        28.0611 
 189   0.0000       1.066496        29.0208 
 190   0.0000       1.079639        29.3785 
 191   0.0000       1.099633        29.9225 
 192   0.0000       1.111282        30.2395 
 193   0.0000       1.123631        30.5756 
 194   0.0000       1.155293        31.4371 
 195   0.0000       1.169477        31.8231 
 196   0.0000       1.175422        31.9849 
 197   0.0000       1.206532        32.8314 
 198   0.0000       1.220410        33.2091 
 199   0.0000       1.226331        33.3702 
 200   0.0000       1.242709        33.8158 
 201   0.0000       1.247914        33.9575 
 202   0.0000       1.262018        34.3412 
 203   0.0000       1.272501        34.6265 
 204   0.0000       1.292446        35.1692 
 205   0.0000       1.301730        35.4219 
 206   0.0000       1.321210        35.9520 
 207   0.0000       1.333354        36.2824 
 208   0.0000       1.341405        36.5015 
 209   0.0000       1.358792        36.9746 
 210   0.0000       1.366793        37.1923 
 211   0.0000       1.374946        37.4142 
 212   0.0000       1.385203        37.6933 
 213   0.0000       1.401579        38.1389 
 214   0.0000       1.404075        38.2068 
 215   0.0000       1.431170        38.9441 
 216   0.0000       1.443552        39.2810 
 217   0.0000       1.461255        39.7628 
 218   0.0000       1.482451        40.3395 
 219   0.0000       1.493610        40.6432 
 220   0.0000       1.502499        40.8851 
 221   0.0000       1.518017        41.3073 
 222   0.0000       1.532330        41.6968 
 223   0.0000       1.542194        41.9652 
 224   0.0000       1.553020        42.2598 
 225   0.0000       1.575371        42.8680 
 226   0.0000       1.593606        43.3642 
 227   0.0000       1.619173        44.0599 
 228   0.0000       1.623885        44.1882 
 229   0.0000       1.638407        44.5833 
 230   0.0000       1.651508        44.9398 
 231   0.0000       1.657283        45.0970 
 232   0.0000       1.674517        45.5659 
 233   0.0000       1.685570        45.8667 
 234   0.0000       1.692291        46.0496 
 235   0.0000       1.714343        46.6496 
 236   0.0000       1.743293        47.4374 
 237   0.0000       1.750001        47.6199 
 238   0.0000       1.757710        47.8297 
 239   0.0000       1.788519        48.6681 
 240   0.0000       1.796333        48.8807 
 241   0.0000       1.796943        48.8973 
 242   0.0000       1.810138        49.2563 
 243   0.0000       1.821685        49.5706 
 244   0.0000       1.833636        49.8958 
 245   0.0000       1.847751        50.2799 
 246   0.0000       1.864064        50.7238 
 247   0.0000       1.890125        51.4329 
 248   0.0000       1.913986        52.0822 
 249   0.0000       1.956122        53.2288 
 250   0.0000       1.957635        53.2700 
 251   0.0000       1.968321        53.5607 
 252   0.0000       1.979639        53.8687 
 253   0.0000       2.021035        54.9952 
 254   0.0000       2.024478        55.0888 
 255   0.0000       2.029984        55.2387 
 256   0.0000       2.065136        56.1952 
 257   0.0000       2.071921        56.3798 
 258   0.0000       2.090901        56.8963 
 259   0.0000       2.105231        57.2862 
 260   0.0000       2.119695        57.6798 
 261   0.0000       2.125157        57.8285 
 262   0.0000       2.130724        57.9800 
 263   0.0000       2.149992        58.5043 
 264   0.0000       2.170482        59.0618 
 265   0.0000       2.197784        59.8047 
 266   0.0000       2.222056        60.4652 
 267   0.0000       2.231450        60.7208 
 268   0.0000       2.238807        60.9210 
 269   0.0000       2.254946        61.3602 
 270   0.0000       2.266856        61.6843 
 271   0.0000       2.271298        61.8052 
 272   0.0000       2.278107        61.9904 
 273   0.0000       2.308208        62.8095 
 274   0.0000       2.327173        63.3256 
 275   0.0000       2.335136        63.5423 
 276   0.0000       2.338176        63.6250 
 277   0.0000       2.344004        63.7836 
 278   0.0000       2.365227        64.3611 
 279   0.0000       2.373334        64.5817 
 280   0.0000       2.398052        65.2543 
 281   0.0000       2.412452        65.6462 
 282   0.0000       2.419239        65.8308 
 283   0.0000       2.433440        66.2173 
 284   0.0000       2.438784        66.3627 
 285   0.0000       2.466412        67.1145 
 286   0.0000       2.476253        67.3823 
 287   0.0000       2.490071        67.7583 
 288   0.0000       2.499466        68.0139 
 289   0.0000       2.518033        68.5192 
 290   0.0000       2.522857        68.6504 
 291   0.0000       2.526192        68.7412 
 292   0.0000       2.536624        69.0250 
 293   0.0000       2.557091        69.5820 
 294   0.0000       2.579526        70.1925 
 295   0.0000       2.588669        70.4413 
 296   0.0000       2.613952        71.1292 
 297   0.0000       2.628756        71.5321 
 298   0.0000       2.640427        71.8497 
 299   0.0000       2.651959        72.1635 
 300   0.0000       2.674175        72.7680 
 301   0.0000       2.682660        72.9989 
 302   0.0000       2.707420        73.6726 
 303   0.0000       2.717172        73.9380 
 304   0.0000       2.726246        74.1849 
 305   0.0000       2.737828        74.5001 
 306   0.0000       2.758146        75.0530 
 307   0.0000       2.777131        75.5696 
 308   0.0000       2.795437        76.0677 
 309   0.0000       2.805457        76.3404 
 310   0.0000       2.810543        76.4788 
 311   0.0000       2.831242        77.0420 
 312   0.0000       2.838019        77.2264 
 313   0.0000       2.845569        77.4319 
 314   0.0000       2.851668        77.5978 
 315   0.0000       2.869812        78.0916 
 316   0.0000       2.875705        78.2519 
 317   0.0000       2.891164        78.6726 
 318   0.0000       2.914630        79.3111 
 319   0.0000       2.919175        79.4348 
 320   0.0000       2.931132        79.7602 
 321   0.0000       2.943457        80.0955 
 322   0.0000       2.964540        80.6692 
 323   0.0000       2.975294        80.9619 
 324   0.0000       2.997237        81.5590 
 325   0.0000       3.006222        81.8035 
 326   0.0000       3.012852        81.9839 
 327   0.0000       3.029453        82.4356 
 328   0.0000       3.042027        82.7778 
 329   0.0000       3.053100        83.0791 
 330   0.0000       3.077229        83.7357 
 331   0.0000       3.086486        83.9876 
 332   0.0000       3.097403        84.2846 
 333   0.0000       3.111927        84.6798 
 334   0.0000       3.119827        84.8948 
 335   0.0000       3.133386        85.2638 
 336   0.0000       3.160164        85.9924 
 337   0.0000       3.166130        86.1548 
 338   0.0000       3.191658        86.8494 
 339   0.0000       3.206990        87.2666 
 340   0.0000       3.229658        87.8835 
 341   0.0000       3.245458        88.3134 
 342   0.0000       3.253582        88.5345 
 343   0.0000       3.264092        88.8204 
 344   0.0000       3.285353        89.3990 
 345   0.0000       3.296283        89.6964 
 346   0.0000       3.305952        89.9595 
 347   0.0000       3.318905        90.3120 
 348   0.0000       3.342216        90.9463 
 349   0.0000       3.366120        91.5968 
 350   0.0000       3.382602        92.0453 
 351   0.0000       3.403554        92.6154 
 352   0.0000       3.441418        93.6457 
 353   0.0000       3.451849        93.9296 
 354   0.0000       3.468190        94.3743 
 355   0.0000       3.487428        94.8977 
 356   0.0000       3.494219        95.0825 
 357   0.0000       3.531623        96.1004 
 358   0.0000       3.539910        96.3259 
 359   0.0000       3.556633        96.7809 
 360   0.0000       3.594895        97.8221 
 361   0.0000       3.618795        98.4724 
 362   0.0000       3.623720        98.6064 
 363   0.0000       3.653419        99.4146 
 364   0.0000       3.683866       100.2431 
 365   0.0000       3.708755       100.9203 
 366   0.0000       3.714575       101.0787 
 367   0.0000       3.737930       101.7143 
 368   0.0000       3.751754       102.0904 
 369   0.0000       3.781002       102.8863 
 370   0.0000       3.790267       103.1384 
 371   0.0000       3.810943       103.7010 
 372   0.0000       3.853047       104.8467 
 373   0.0000       3.865471       105.1848 
 374   0.0000       3.876729       105.4912 
 375   0.0000       3.885937       105.7417 
 376   0.0000       3.936409       107.1151 
 377   0.0000       3.967537       107.9622 
 378   0.0000       4.009186       109.0955 
 379   0.0000       4.042168       109.9930 
 380   0.0000       4.051736       110.2533 
 381   0.0000       4.076664       110.9317 
 382   0.0000       4.122021       112.1659 
 383   0.0000       4.150882       112.9513 
 384   0.0000       4.168793       113.4386 
 385   0.0000       4.214054       114.6702 
 386   0.0000       4.246157       115.5438 
 387   0.0000       4.295500       116.8865 
 388   0.0000       4.332563       117.8950 
 389   0.0000       4.374436       119.0345 
 390   0.0000       4.406421       119.9048 
 391   0.0000       4.421305       120.3098 
 392   0.0000       4.436783       120.7310 
 393   0.0000       4.465070       121.5007 
 394   0.0000       4.481721       121.9538 
 395   0.0000       4.511321       122.7593 
 396   0.0000       4.535540       123.4183 
 397   0.0000       4.580656       124.6460 
 398   0.0000       4.601558       125.2148 
 399   0.0000       4.660225       126.8112 
 400   0.0000       4.684035       127.4591 
 401   0.0000       4.704140       128.0062 
 402   0.0000       4.792862       130.4204 
 403   0.0000       4.803431       130.7080 
 404   0.0000       4.835344       131.5764 
 405   0.0000       4.842604       131.7739 
 406   0.0000       4.874557       132.6434 
 407   0.0000       4.943762       134.5266 
 408   0.0000       4.995880       135.9448 
 409   0.0000       5.019207       136.5796 
 410   0.0000       5.035373       137.0195 
 411   0.0000       5.040829       137.1679 
 412   0.0000       5.134843       139.7262 
 413   0.0000       5.144675       139.9937 
 414   0.0000       5.205971       141.6617 
 415   0.0000       5.314306       144.6096 
 416   0.0000       5.334455       145.1579 
 417   0.0000       5.343835       145.4131 
 418   0.0000       5.343924       145.4156 
 419   0.0000       5.344938       145.4431 
 420   0.0000       5.349712       145.5731 
 421   0.0000       5.374329       146.2429 
 422   0.0000       5.383118       146.4821 
 423   0.0000       5.469515       148.8331 
 424   0.0000       5.522983       150.2880 
 425   0.0000       5.540539       150.7657 
 426   0.0000       5.731478       155.9614 
 427   0.0000       5.743683       156.2936 
 428   0.0000       5.907873       160.7614 
 429   0.0000       5.942926       161.7152 
 430   0.0000       5.973681       162.5521 
 431   0.0000       5.985743       162.8803 
 432   0.0000       6.176266       168.0648 
 433   0.0000       6.247138       169.9933 
 434   0.0000       6.328173       172.1984 
 435   0.0000       6.339365       172.5029 
 436   0.0000       6.397400       174.0821 
 437   0.0000       6.547223       178.1590 
 438   0.0000       6.580960       179.0770 
 439   0.0000       6.832282       185.9158 
 440   0.0000       6.955879       189.2791 
 441   0.0000      21.630803       588.6041 
 442   0.0000      21.798021       593.1543 
 443   0.0000      21.984825       598.2375 
 444   0.0000      22.112708       601.7174 
 445   0.0000      22.165297       603.1484 
 446   0.0000      22.313308       607.1760 
 447   0.0000      22.400259       609.5420 
 448   0.0000      22.819126       620.9400 
 449   0.0000      31.320938       852.2861 
 450   0.0000      43.150653      1174.1890 
 451   0.0000      43.358991      1179.8581 

                 SPIN DOWN ORBITALS
  NO   OCC          E(Eh)            E(eV) 
   0   1.0000    -321.807433     -8756.8254 
   1   1.0000     -38.569680     -1049.5344 
   2   1.0000     -33.861173      -921.4094 
   3   1.0000     -33.860773      -921.3985 
   4   1.0000     -33.860748      -921.3978 
   5   1.0000     -19.101452      -519.7769 
   6   1.0000     -19.092405      -519.5307 
   7   1.0000     -14.335442      -390.0872 
   8   1.0000     -10.266532      -279.3665 
   9   1.0000     -10.264133      -279.3013 
  10   1.0000     -10.210357      -277.8379 
  11   1.0000     -10.202484      -277.6237 
  12   1.0000     -10.191270      -277.3186 
  13   1.0000     -10.182722      -277.0859 
  14   1.0000     -10.178467      -276.9702 
  15   1.0000     -10.173136      -276.8251 
  16   1.0000      -4.404475      -119.8518 
  17   1.0000      -2.942768       -80.0768 
  18   1.0000      -2.938797       -79.9687 
  19   1.0000      -2.938613       -79.9637 
  20   1.0000      -1.303152       -35.4606 
  21   1.0000      -1.276277       -34.7293 
  22   1.0000      -1.140879       -31.0449 
  23   1.0000      -1.072646       -29.1882 
  24   1.0000      -0.998272       -27.1643 
  25   1.0000      -0.971919       -26.4473 
  26   1.0000      -0.940066       -25.5805 
  27   1.0000      -0.886955       -24.1353 
  28   1.0000      -0.854467       -23.2512 
  29   1.0000      -0.844282       -22.9741 
  30   1.0000      -0.801040       -21.7974 
  31   1.0000      -0.780522       -21.2391 
  32   1.0000      -0.766906       -20.8686 
  33   1.0000      -0.736039       -20.0286 
  34   1.0000      -0.704870       -19.1805 
  35   1.0000      -0.699606       -19.0373 
  36   1.0000      -0.694966       -18.9110 
  37   1.0000      -0.683260       -18.5924 
  38   1.0000      -0.676513       -18.4089 
  39   1.0000      -0.662078       -18.0161 
  40   1.0000      -0.640780       -17.4365 
  41   1.0000      -0.629127       -17.1194 
  42   1.0000      -0.624972       -17.0064 
  43   1.0000      -0.613636       -16.6979 
  44   1.0000      -0.601062       -16.3557 
  45   1.0000      -0.595815       -16.2130 
  46   1.0000      -0.582928       -15.8623 
  47   1.0000      -0.572113       -15.5680 
  48   1.0000      -0.513995       -13.9865 
  49   1.0000      -0.513076       -13.9615 
  50   1.0000      -0.511396       -13.9158 
  51   1.0000      -0.511191       -13.9102 
  52   1.0000      -0.509558       -13.8658 
  53   1.0000      -0.497157       -13.5283 
  54   0.0000      -0.465484       -12.6665 
  55   0.0000      -0.393278       -10.7016 
  56   0.0000      -0.321184        -8.7399 
  57   0.0000      -0.318517        -8.6673 
  58   0.0000      -0.264003        -7.1839 
  59   0.0000      -0.257095        -6.9959 
  60   0.0000      -0.251410        -6.8412 
  61   0.0000      -0.242735        -6.6052 
  62   0.0000      -0.221904        -6.0383 
  63   0.0000      -0.216728        -5.8975 
  64   0.0000      -0.208763        -5.6807 
  65   0.0000      -0.198857        -5.4112 
  66   0.0000      -0.191414        -5.2086 
  67   0.0000      -0.186693        -5.0802 
  68   0.0000      -0.168955        -4.5975 
  69   0.0000      -0.163270        -4.4428 
  70   0.0000      -0.156999        -4.2722 
  71   0.0000      -0.152765        -4.1570 
  72   0.0000      -0.142680        -3.8825 
  73   0.0000      -0.129841        -3.5332 
  74   0.0000      -0.128494        -3.4965 
  75   0.0000      -0.119603        -3.2546 
  76   0.0000      -0.111708        -3.0397 
  77   0.0000      -0.106672        -2.9027 
  78   0.0000      -0.100174        -2.7259 
  79   0.0000      -0.088492        -2.4080 
  80   0.0000      -0.078191        -2.1277 
  81   0.0000      -0.072234        -1.9656 
  82   0.0000      -0.066465        -1.8086 
  83   0.0000      -0.055364        -1.5065 
  84   0.0000      -0.053292        -1.4501 
  85   0.0000      -0.050520        -1.3747 
  86   0.0000      -0.046291        -1.2596 
  87   0.0000      -0.037143        -1.0107 
  88   0.0000      -0.022953        -0.6246 
  89   0.0000      -0.019447        -0.5292 
  90   0.0000      -0.010865        -0.2957 
  91   0.0000      -0.007716        -0.2100 
  92   0.0000       0.006582         0.1791 
  93   0.0000       0.013922         0.3788 
  94   0.0000       0.017612         0.4793 
  95   0.0000       0.028652         0.7797 
  96   0.0000       0.035197         0.9578 
  97   0.0000       0.039135         1.0649 
  98   0.0000       0.048865         1.3297 
  99   0.0000       0.054961         1.4956 
 100   0.0000       0.059352         1.6151 
 101   0.0000       0.067341         1.8324 
 102   0.0000       0.072853         1.9824 
 103   0.0000       0.080277         2.1844 
 104   0.0000       0.086055         2.3417 
 105   0.0000       0.097573         2.6551 
 106   0.0000       0.105886         2.8813 
 107   0.0000       0.117970         3.2101 
 108   0.0000       0.121746         3.3129 
 109   0.0000       0.127054         3.4573 
 110   0.0000       0.139425         3.7939 
 111   0.0000       0.141381         3.8472 
 112   0.0000       0.146738         3.9930 
 113   0.0000       0.156126         4.2484 
 114   0.0000       0.165395         4.5006 
 115   0.0000       0.168546         4.5864 
 116   0.0000       0.178698         4.8626 
 117   0.0000       0.186016         5.0618 
 118   0.0000       0.196092         5.3359 
 119   0.0000       0.202513         5.5106 
 120   0.0000       0.204516         5.5652 
 121   0.0000       0.219044         5.9605 
 122   0.0000       0.232978         6.3397 
 123   0.0000       0.239136         6.5072 
 124   0.0000       0.245390         6.6774 
 125   0.0000       0.245951         6.6927 
 126   0.0000       0.269550         7.3348 
 127   0.0000       0.275390         7.4937 
 128   0.0000       0.284576         7.7437 
 129   0.0000       0.297091         8.0843 
 130   0.0000       0.307762         8.3746 
 131   0.0000       0.315701         8.5907 
 132   0.0000       0.328741         8.9455 
 133   0.0000       0.332907         9.0589 
 134   0.0000       0.343966         9.3598 
 135   0.0000       0.350632         9.5412 
 136   0.0000       0.353270         9.6130 
 137   0.0000       0.381448        10.3797 
 138   0.0000       0.397256        10.8099 
[...]
     15       0.061949  -0.034883  -0.002038  -0.004102  -0.000013   0.000141
     16       0.013414  -0.004137  -0.042998  -0.079869   0.002338  -0.000925
     17       0.002534  -0.002098   0.000203   0.002487  -0.000125   0.000059
     18       0.000386   0.000656  -0.000358   0.000464   0.010930   0.006980
     19       0.000341   0.000833  -0.002148   0.002692   0.065737   0.051212
     20       0.000033   0.000145  -0.000447   0.000486   0.010658   0.007875
     21       0.000030   0.000630  -0.000344  -0.001444  -0.033282   0.040665
     22       0.000065   0.000027   0.000148   0.001689   0.033608  -0.043505
     23       0.000160   0.000485   0.000001  -0.000611  -0.015039   0.017789
     24      -0.000091  -0.000037   0.000193  -0.000113  -0.001843  -0.000990
     25       0.000185   0.000106  -0.000206   0.000068   0.001060   0.000347
     26      -0.000009   0.000015   0.000081  -0.000050  -0.000448  -0.000391
     27       0.000044  -0.000138  -0.000045   0.000015  -0.001755   0.003842
     28      -0.000074  -0.000065   0.000126  -0.000330  -0.013785   0.024640
     29       0.000028  -0.000117  -0.000080   0.000045  -0.001819   0.003861
     30      -0.000128   0.000190  -0.000020   0.000067   0.000328  -0.000338
     31      -0.000031  -0.000012   0.000028  -0.000049  -0.001039   0.000084
     32      -0.000048   0.000121   0.000021  -0.000009  -0.000112  -0.000107
     33       0.164963   0.291825   0.189561  -0.089765   0.003679  -0.003367
     34      -0.177461  -0.320494  -0.186614   0.092077  -0.003899   0.000148
     35       0.328269   0.600539   0.385651  -0.188346   0.007928  -0.003672
     36      -0.003313  -0.003717  -0.004943   0.000106  -0.002359  -0.003456
     37       0.262168   0.456518  -0.728973   0.414011  -0.029060  -0.018923
     38       0.029525   0.053486  -0.108537   0.062637  -0.004581  -0.003503
     39      -0.679440   0.368802   0.134952   0.258223  -0.007581  -0.000087
     40      -0.453631   0.245812   0.079102   0.155386  -0.004925   0.000564
     41      -0.032646   0.013188   0.006165   0.008451   0.000247   0.000329
     42      -0.056818   0.040108  -0.109847  -0.201976   0.007266  -0.003059
     43       0.294513  -0.191399   0.437250   0.793394  -0.024446   0.009894
     44      -0.013859   0.011158  -0.020733  -0.032564   0.000219  -0.000390
     45      -0.001705  -0.003454   0.005768  -0.006393  -0.134037  -0.102369
     46      -0.004970  -0.011918   0.019783  -0.027996  -0.765342  -0.589411
     47      -0.000931  -0.002481   0.004131  -0.005045  -0.127302  -0.097478
     48      -0.001067  -0.005432   0.003475   0.016984   0.388309  -0.483470
     49       0.000147   0.004494  -0.005154  -0.016251  -0.400523   0.501073
     50      -0.000739  -0.003472   0.000951   0.007051   0.172442  -0.214098
     51      -0.000111  -0.000377  -0.000119   0.000763   0.029622  -0.052617
     52      -0.000232  -0.000664  -0.001614   0.005069   0.168996  -0.298369
     53      -0.000168  -0.000371   0.000015   0.000774   0.027697  -0.048968
     54      -0.001752  -0.000490   0.003071   0.004088  -0.000202   0.000083
     55       0.000212   0.002981  -0.014974  -0.023348  -0.000286  -0.001282
     56       0.001221  -0.001922   0.002196  -0.003764   0.001021   0.000379
     57       0.008089  -0.004567   0.000864  -0.000434   0.000130   0.000029
     58      -0.004613   0.002501  -0.000194   0.001414  -0.000280  -0.000226
     59      -0.001837   0.000038   0.001871   0.003481  -0.000103   0.000002
     60      -0.000009   0.000013  -0.000006  -0.000011  -0.000016   0.000041
     61      -0.000012   0.000019   0.000003  -0.000010  -0.000004  -0.000021
     62       0.000007   0.000020   0.000008   0.000020   0.000012  -0.000037
                 60         61         62    
      0       0.000049   0.000032   0.000019
      1      -0.000168  -0.000028  -0.000025
      2      -0.000009   0.000009   0.000008
      3       0.000475   0.000006   0.000021
      4       0.000100  -0.000013   0.000001
      5       0.000159   0.000001   0.000008
      6      -0.000011  -0.007422   0.048264
      7       0.000010  -0.045801  -0.049809
      8      -0.000016   0.034422  -0.039494
      9       0.000031   0.000163  -0.000179
     10       0.000107   0.000238   0.000416
     11      -0.000033   0.000052   0.000291
     12       0.000619  -0.000020  -0.000090
     13       0.001563  -0.000059  -0.000029
     14       0.000723  -0.000068   0.000083
     15       0.000068  -0.001275   0.001137
     16      -0.000397  -0.002880  -0.001363
     17       0.000022   0.000106  -0.000020
     18       0.000563   0.000067   0.000009
     19       0.004503   0.000113   0.000099
     20       0.000768   0.000013   0.000021
     21       0.021860   0.000101  -0.000030
     22      -0.019875   0.000017  -0.000028
     23       0.010209  -0.000025   0.000011
     24       0.000083  -0.000064  -0.000020
     25       0.000678  -0.000004   0.000016
     26       0.000088  -0.000036  -0.000016
     27      -0.015461   0.000026   0.000050
     28      -0.078217  -0.000024   0.000001
     29      -0.014178  -0.000000   0.000012
     30      -0.002205  -0.000013  -0.000040
     31       0.000245   0.000052   0.000012
     32      -0.000579  -0.000005  -0.000016
     33      -0.000778  -0.000662   0.000643
     34      -0.000261   0.000685  -0.000603
     35      -0.000593  -0.001052   0.000079
     36      -0.001055  -0.000733  -0.000621
     37      -0.003969  -0.002444  -0.002011
     38      -0.000773   0.000800   0.000530
     39       0.000317   0.008449  -0.002483
     40       0.000473   0.006670  -0.001157
     41       0.000071  -0.002250   0.000695
     42      -0.001323  -0.004033  -0.003557
     43       0.004199   0.020041   0.014494
     44      -0.000082  -0.001466  -0.001503
     45      -0.008728  -0.000121  -0.000040
     46      -0.051428  -0.000946  -0.000856
     47      -0.008112  -0.000289  -0.000308
     48      -0.232434  -0.000201  -0.000077
     49       0.235112  -0.000016   0.000087
     50      -0.103718   0.000113  -0.000048
     51       0.165534  -0.000019   0.000013
     52       0.904906  -0.000086   0.000015
     53       0.152616   0.000040  -0.000015
     54       0.000001  -0.242362  -0.138366
     55      -0.000244   0.786866   0.530981
     56      -0.000089  -0.068251  -0.064144
     57       0.000167   0.357390  -0.536811
     58       0.000088  -0.140537   0.165462
     59       0.000044  -0.407513   0.610445
     60       0.000062  -0.000049   0.000001
     61       0.000017  -0.000044  -0.000055
     62      -0.000096   0.000015  -0.000024


-----------
IR SPECTRUM
-----------

 Mode   freq       eps      Int      T**2         TX        TY        TZ
       cm**-1   L/(mol*cm) km/mol    a.u.
----------------------------------------------------------------------------
  6:     62.54   0.000263    1.33  0.001314  (-0.021706  0.011888  0.026483)
  7:     74.78   0.000477    2.41  0.001993  (-0.044535  0.001243  0.002776)
  8:     79.57   0.000155    0.78  0.000607  ( 0.013032  0.002901 -0.020711)
  9:    149.90   0.000061    0.31  0.000128  ( 0.007628  0.004350 -0.007131)
 10:    186.71   0.000863    4.36  0.001443  ( 0.034000 -0.009133 -0.014270)
 11:    209.77   0.000172    0.87  0.000256  ( 0.005032 -0.007405 -0.013247)
 12:    294.43   0.000252    1.27  0.000267  ( 0.014833  0.002558 -0.006340)
 13:    311.71   0.000434    2.19  0.000434  ( 0.017122 -0.008583  0.008219)
 14:    324.14   0.000235    1.19  0.000226  ( 0.011638  0.003186  0.008982)
 15:    341.33   0.000070    0.35  0.000064  (-0.004525  0.006606  0.000161)
 16:    406.88   0.000782    3.95  0.000600  (-0.001289  0.024438  0.001012)
 17:    414.01   0.000237    1.20  0.000178  ( 0.011408 -0.000530  0.006927)
 18:    441.53   0.000657    3.32  0.000464  ( 0.017311 -0.007647 -0.010304)
 19:    459.47   0.001472    7.44  0.001000  (-0.030474  0.002500  0.008053)
 20:    499.59   0.001452    7.34  0.000907  (-0.018616  0.006818  0.022668)
 21:    572.86   0.000423    2.14  0.000230  (-0.014120 -0.004848  0.002699)
 22:    582.66   0.001086    5.49  0.000582  ( 0.008011 -0.018077  0.013814)
 23:    625.78   0.003616   18.27  0.001803  ( 0.005091 -0.014591 -0.039550)
 24:    663.57   0.002545   12.86  0.001197  (-0.017369  0.004847  0.029526)
 25:    733.51   0.000543    2.74  0.000231  (-0.004266 -0.013589 -0.005293)
 26:    743.15   0.000213    1.08  0.000090  ( 0.002519  0.008775 -0.002496)
 27:    778.69   0.006883   34.78  0.002758  (-0.033101  0.005177  0.040447)
 28:    817.38   0.001699    8.59  0.000649  (-0.016974 -0.001881 -0.018893)
 29:    838.38   0.002381   12.03  0.000886  (-0.028645 -0.006193  0.005216)
 30:    864.19   0.000824    4.16  0.000297  (-0.013269 -0.009929 -0.004777)
 31:    882.37   0.002157   10.90  0.000763  ( 0.019650 -0.013086 -0.014332)
 32:    928.64   0.002459   12.43  0.000826  ( 0.000442  0.027393  0.008712)
 33:    971.38   0.005323   26.90  0.001710  (-0.039735 -0.005183 -0.010209)
 34:    998.98   0.002259   11.41  0.000706  (-0.014608 -0.001358 -0.022143)
 35:   1046.23   0.004030   20.36  0.001202  (-0.032997 -0.007882 -0.007142)
 36:   1061.93   0.001869    9.45  0.000549  (-0.000789  0.023386  0.001326)
 37:   1099.19   0.000291    1.47  0.000083  ( 0.007660  0.002387  0.004285)
 38:   1115.67   0.000631    3.19  0.000177  (-0.001069 -0.011698  0.006214)
 39:   1138.32   0.000460    2.32  0.000126  ( 0.008071  0.006476  0.004350)
 40:   1205.28   0.004448   22.48  0.001152  (-0.033829 -0.002234  0.001476)
 41:   1224.06   0.000604    3.05  0.000154  ( 0.011630  0.004320  0.000343)
 42:   1246.95   0.000452    2.28  0.000113  ( 0.005499  0.009079  0.000592)
 43:   1290.52   0.000289    1.46  0.000070  (-0.000004  0.008338  0.000670)
 44:   1310.67   0.000239    1.21  0.000057  (-0.001517  0.002861  0.006809)
 45:   1342.05   0.000285    1.44  0.000066  (-0.000556 -0.006562  0.004790)
 46:   1360.74   0.000082    0.41  0.000019  ( 0.001759 -0.000395 -0.003936)
 47:   1425.07   0.001896    9.58  0.000415  (-0.011697 -0.007347 -0.014977)
 48:   1438.77   0.002575   13.01  0.000559  (-0.020594  0.011593  0.000263)
 49:   1454.76   0.000972    4.91  0.000209  (-0.009914  0.010302  0.002034)
 50:   1512.91   0.000966    4.88  0.000199  (-0.003319  0.011566  0.007384)
 51:   1577.85   0.073800  372.95  0.014596  (-0.116170  0.029186  0.015770)
 52:   1582.31   0.019354   97.81  0.003817  (-0.037890  0.043280 -0.022543)
 53:   1605.46   0.027411  138.53  0.005328  (-0.063190 -0.035932 -0.006639)
 54:   2962.54   0.004783   24.17  0.000504  ( 0.021894 -0.000171 -0.004945)
 55:   2972.84   0.011604   58.64  0.001218  (-0.029970 -0.008393 -0.015794)
 56:   3011.16   0.000380    1.92  0.000039  (-0.003604  0.004739 -0.001981)
 57:   3035.64   0.003017   15.25  0.000310  (-0.002162 -0.017473 -0.000442)
 58:   3078.01   0.001842    9.31  0.000187  (-0.004580  0.012876 -0.000042)
 59:   3080.15   0.001734    8.76  0.000176  ( 0.008242  0.006301  0.008251)
 60:   3101.76   0.001054    5.33  0.000106  (-0.002149 -0.008457  0.005471)
 61:   3381.84   0.001305    6.60  0.000120  ( 0.001812  0.007247 -0.008041)
 62:   3453.19   0.003326   16.81  0.000301  (-0.008669  0.012563  0.008223)

* The epsilon (eps) is given for a Dirac delta lineshape.
** The dipole moment derivative (T) already includes vibrational overlap.

The first frequency considered to be a vibration is 6
The total number of vibrations considered is 57


--------------------------
THERMOCHEMISTRY AT 298.15K
--------------------------

Temperature         ... 298.15 K
Pressure            ... 1.00 atm
Total Mass          ... 214.72 AMU

Throughout the following assumptions are being made:
  (1) The electronic state is orbitally nondegenerate
      but the spin degeneracy is treated
  (2) There are no thermally accessible electronically excited states
  (3) Hindered rotations indicated by low frequency modes are not
      treated as such but are treated as vibrations and this may
      cause some error
  (4) All equations used are the standard statistical mechanics
      equations for an ideal gas
  (5) All vibrations are strictly harmonic

freq.      62.54  E(vib)   ...       0.51 
freq.      74.78  E(vib)   ...       0.49 
freq.      79.57  E(vib)   ...       0.49 
freq.     149.90  E(vib)   ...       0.40 
freq.     186.71  E(vib)   ...       0.37 
freq.     209.77  E(vib)   ...       0.34 
freq.     294.43  E(vib)   ...       0.27 
freq.     311.71  E(vib)   ...       0.25 
freq.     324.14  E(vib)   ...       0.25 
freq.     341.33  E(vib)   ...       0.23 
freq.     406.88  E(vib)   ...       0.19 
freq.     414.01  E(vib)   ...       0.19 
freq.     441.53  E(vib)   ...       0.17 
freq.     459.47  E(vib)   ...       0.16 
freq.     499.59  E(vib)   ...       0.14 
freq.     572.86  E(vib)   ...       0.11 
freq.     582.66  E(vib)   ...       0.11 
freq.     625.78  E(vib)   ...       0.09 
freq.     663.57  E(vib)   ...       0.08 
freq.     733.51  E(vib)   ...       0.06 
freq.     743.15  E(vib)   ...       0.06 
freq.     778.69  E(vib)   ...       0.05 
freq.     817.38  E(vib)   ...       0.05 
freq.     838.38  E(vib)   ...       0.04 
freq.     864.19  E(vib)   ...       0.04 
freq.     882.37  E(vib)   ...       0.04 
freq.     928.64  E(vib)   ...       0.03 
freq.     971.38  E(vib)   ...       0.03 
freq.     998.98  E(vib)   ...       0.02 
freq.    1046.23  E(vib)   ...       0.02 
freq.    1061.93  E(vib)   ...       0.02 
freq.    1099.19  E(vib)   ...       0.02 
freq.    1115.67  E(vib)   ...       0.01 
freq.    1138.32  E(vib)   ...       0.01 
freq.    1205.28  E(vib)   ...       0.01 
freq.    1224.06  E(vib)   ...       0.01 
freq.    1246.95  E(vib)   ...       0.01 
freq.    1290.52  E(vib)   ...       0.01 
freq.    1310.67  E(vib)   ...       0.01 
freq.    1342.05  E(vib)   ...       0.01 
freq.    1360.74  E(vib)   ...       0.01 
freq.    1425.07  E(vib)   ...       0.00 
freq.    1438.77  E(vib)   ...       0.00 
freq.    1454.76  E(vib)   ...       0.00 
freq.    1512.91  E(vib)   ...       0.00 
freq.    1577.85  E(vib)   ...       0.00 
freq.    1582.31  E(vib)   ...       0.00 
freq.    1605.46  E(vib)   ...       0.00 
freq.    2962.54  E(vib)   ...       0.00 
freq.    2972.84  E(vib)   ...       0.00 
freq.    3011.16  E(vib)   ...       0.00 
freq.    3035.64  E(vib)   ...       0.00 
freq.    3078.01  E(vib)   ...       0.00 
freq.    3080.15  E(vib)   ...       0.00 
freq.    3101.76  E(vib)   ...       0.00 
freq.    3381.84  E(vib)   ...       0.00 
freq.    3453.19  E(vib)   ...       0.00 

------------
INNER ENERGY
------------

The inner energy is: U= E(el) + E(ZPE) + E(vib) + E(rot) + E(trans)
    E(el)   - is the total energy from the electronic structure calculation
              = E(kin-el) + E(nuc-el) + E(el-el) + E(nuc-nuc)
    E(ZPE)  - the the zero temperature vibrational energy from the frequency calculation
    E(vib)  - the the finite temperature correction to E(ZPE) due to population
              of excited vibrational states
    E(rot)  - is the rotational thermal energy
    E(trans)- is the translational thermal energy

Summary of contributions to the inner energy U:
Electronic energy                ...  -2155.34811559 Eh
Zero point energy                ...      0.15576690 Eh      97.74 kcal/mol
Thermal vibrational correction   ...      0.00862161 Eh       5.41 kcal/mol
Thermal rotational correction    ...      0.00141627 Eh       0.89 kcal/mol
Thermal translational correction ...      0.00141627 Eh       0.89 kcal/mol
-----------------------------------------------------------------------
Total thermal energy                  -2155.18089453 Eh


Summary of corrections to the electronic energy:
(perhaps to be used in another calculation)
Total thermal correction                  0.01145415 Eh       7.19 kcal/mol
Non-thermal (ZPE) correction              0.15576690 Eh      97.74 kcal/mol
-----------------------------------------------------------------------
Total correction                          0.16722105 Eh     104.93 kcal/mol


--------
ENTHALPY
--------

The enthalpy is H = U + kB*T
                kB is Boltzmann's constant
Total free energy                 ...  -2155.18089453 Eh 
Thermal Enthalpy correction       ...      0.00094421 Eh       0.59 kcal/mol
-----------------------------------------------------------------------
Total Enthalpy                    ...  -2155.17995032 Eh


Note: Only C1 symmetry has been detected, increase convergence thresholds 
      if your molecule has a higher symmetry. Symmetry factor of 1.0 is   
      used for the rotational entropy correction. 
 

Note: Rotational entropy computed according to Herzberg 
Infrared and Raman Spectra, Chapter V,1, Van Nostrand Reinhold, 1945 
Point Group:  C1, Symmetry Number:   1  
Rotational constants in cm-1:     0.046563     0.022214     0.019058 

Vibrational entropy computed according to the QRRHO of S. Grimme
Chem.Eur.J. 2012 18 9955


-------
ENTROPY
-------

The entropy contributions are T*S = T*(S(el)+S(vib)+S(rot)+S(trans))
     S(el)   - electronic entropy
     S(vib)  - vibrational entropy
     S(rot)  - rotational entropy
     S(trans)- translational entropy
The entropies will be listed as multiplied by the temperature to get
units of energy

Electronic entropy                ...      0.00065446 Eh      0.41 kcal/mol
Vibrational entropy               ...      0.01454501 Eh      9.13 kcal/mol
Rotational entropy                ...      0.01462557 Eh      9.18 kcal/mol
Translational entropy             ...      0.01995347 Eh     12.52 kcal/mol
-----------------------------------------------------------------------
Final entropy term                ...      0.04977850 Eh     31.24 kcal/mol

In case the symmetry of your molecule has not been determined correctly
or in case you have a reason to use a different symmetry number we print 
out the resulting rotational entropy values for sn=1,12 :
 --------------------------------------------------------
|  sn= 1 | S(rot)=       0.01462557 Eh      9.18 kcal/mol|
|  sn= 2 | S(rot)=       0.01397111 Eh      8.77 kcal/mol|
|  sn= 3 | S(rot)=       0.01358828 Eh      8.53 kcal/mol|
|  sn= 4 | S(rot)=       0.01331665 Eh      8.36 kcal/mol|
|  sn= 5 | S(rot)=       0.01310597 Eh      8.22 kcal/mol|
|  sn= 6 | S(rot)=       0.01293382 Eh      8.12 kcal/mol|
|  sn= 7 | S(rot)=       0.01278827 Eh      8.02 kcal/mol|
|  sn= 8 | S(rot)=       0.01266220 Eh      7.95 kcal/mol|
|  sn= 9 | S(rot)=       0.01255099 Eh      7.88 kcal/mol|
|  sn=10 | S(rot)=       0.01245151 Eh      7.81 kcal/mol|
|  sn=11 | S(rot)=       0.01236152 Eh      7.76 kcal/mol|
|  sn=12 | S(rot)=       0.01227936 Eh      7.71 kcal/mol|
 --------------------------------------------------------


-------------------
GIBBS FREE ENERGY
-------------------

The Gibbs free energy is G = H - T*S

Total enthalpy                    ...  -2155.17995032 Eh 
Total entropy correction          ...     -0.04977850 Eh    -31.24 kcal/mol
-----------------------------------------------------------------------
Final Gibbs free energy         ...  -2155.22972883 Eh

For completeness - the Gibbs free energy minus the electronic energy
G-E(el)                           ...      0.11838676 Eh     74.29 kcal/mol


No protocol specified

Timings for individual modules:

Sum of individual times         ...     1368.015 sec (=  22.800 min)
GTO integral calculation        ...        4.903 sec (=   0.082 min)   0.4 %
SCF iterations                  ...       54.958 sec (=   0.916 min)   4.0 %
SCF Gradient evaluation         ...       10.585 sec (=   0.176 min)   0.8 %
Geometry relaxation             ...        0.123 sec (=   0.002 min)   0.0 %
Numerical frequency calculation ...     1297.447 sec (=  21.624 min)  94.8 %



                             ****ORCA TERMINATED NORMALLY****
TOTAL RUN TIME: 0 days 1 hours 9 minutes 15 seconds 737 msec
