
                                 *****************
                                 * O   R   C   A *
                                 *****************

                                            #,                                       
                                            ###                                      
                                            ####                                     
                                            #####                                    
                                            ######                                   
                                           ########,                                 
                                     ,,################,,,,,                         
                               ,,#################################,,                 
                          ,,##########################################,,             
                       ,#########################################, ''#####,          
                    ,#############################################,,   '####,        
                  ,##################################################,,,,####,       
                ,###########''''           ''''###############################       
              ,#####''   ,,,,##########,,,,          '''####'''          '####       
            ,##' ,,,,###########################,,,                        '##       
           ' ,,###''''                  '''############,,,                           
         ,,##''                                '''############,,,,        ,,,,,,###''
      ,#''                                            '''#######################'''  
     '                                                          ''''####''''         
             ,#######,   #######,   ,#######,      ##                                
            ,#'     '#,  ##    ##  ,#'     '#,    #''#        ######   ,####,        
            ##       ##  ##   ,#'  ##            #'  '#       #        #'  '#        
            ##       ##  #######   ##           ,######,      #####,   #    #        
            '#,     ,#'  ##    ##  '#,     ,#' ,#      #,         ##   #,  ,#        
             '#######'   ##     ##  '#######'  #'      '#     #####' # '####'        



                  #######################################################
                  #                        -***-                        #
                  #          Department of theory and spectroscopy      #
                  #    Directorship and core code : Frank Neese         #
                  #        Max Planck Institute fuer Kohlenforschung    #
                  #                Kaiser Wilhelm Platz 1               #
                  #                 D-45470 Muelheim/Ruhr               #
                  #                      Germany                        #
                  #                                                     #
                  #                  All rights reserved                #
                  #                        -***-                        #
                  #######################################################


                         Program Version 5.0.2 -  RELEASE  -


 With contributions from (in alphabetic order):
   Daniel Aravena         : Magnetic Suceptibility
   Michael Atanasov       : Ab Initio Ligand Field Theory (pilot matlab implementation)
   Alexander A. Auer      : GIAO ZORA, VPT2 properties, NMR spectrum
   Ute Becker             : Parallelization
   Giovanni Bistoni       : ED, misc. LED, open-shell LED, HFLD
   Martin Brehm           : Molecular dynamics
   Dmytro Bykov           : SCF Hessian
   Vijay G. Chilkuri      : MRCI spin determinant printing, contributions to CSF-ICE
   Dipayan Datta          : RHF DLPNO-CCSD density
   Achintya Kumar Dutta   : EOM-CC, STEOM-CC
   Dmitry Ganyushin       : Spin-Orbit,Spin-Spin,Magnetic field MRCI
   Miquel Garcia          : C-PCM and meta-GGA Hessian, CC/C-PCM, Gaussian charge scheme
   Yang Guo               : DLPNO-NEVPT2, F12-NEVPT2, CIM, IAO-localization
   Andreas Hansen         : Spin unrestricted coupled pair/coupled cluster methods
   Benjamin Helmich-Paris : MC-RPA, TRAH-SCF, COSX integrals
   Lee Huntington         : MR-EOM, pCC
   Robert Izsak           : Overlap fitted RIJCOSX, COSX-SCS-MP3, EOM
   Marcus Kettner         : VPT2
   Christian Kollmar      : KDIIS, OOCD, Brueckner-CCSD(T), CCSD density, CASPT2, CASPT2-K
   Simone Kossmann        : Meta GGA functionals, TD-DFT gradient, OOMP2, MP2 Hessian
   Martin Krupicka        : Initial AUTO-CI
   Lucas Lang             : DCDCAS
   Marvin Lechner         : AUTO-CI (C++ implementation), FIC-MRCC
   Dagmar Lenk            : GEPOL surface, SMD
   Dimitrios Liakos       : Extrapolation schemes; Compound Job, initial MDCI parallelization
   Dimitrios Manganas     : Further ROCIS development; embedding schemes
   Dimitrios Pantazis     : SARC Basis sets
   Anastasios Papadopoulos: AUTO-CI, single reference methods and gradients
   Taras Petrenko         : DFT Hessian,TD-DFT gradient, ASA, ECA, R-Raman, ABS, FL, XAS/XES, NRVS
   Peter Pinski           : DLPNO-MP2, DLPNO-MP2 Gradient
   Christoph Reimann      : Effective Core Potentials
   Marius Retegan         : Local ZFS, SOC
   Christoph Riplinger    : Optimizer, TS searches, QM/MM, DLPNO-CCSD(T), (RO)-DLPNO pert. Triples
   Tobias Risthaus        : Range-separated hybrids, TD-DFT gradient, RPA, STAB
   Michael Roemelt        : Original ROCIS implementation
   Masaaki Saitow         : Open-shell DLPNO-CCSD energy and density
   Barbara Sandhoefer     : DKH picture change effects
   Avijit Sen             : IP-ROCIS
   Kantharuban Sivalingam : CASSCF convergence, NEVPT2, FIC-MRCI
   Bernardo de Souza      : ESD, SOC TD-DFT
   Georgi Stoychev        : AutoAux, RI-MP2 NMR, DLPNO-MP2 response
   Willem Van den Heuvel  : Paramagnetic NMR
   Boris Wezisla          : Elementary symmetry handling
   Frank Wennmohs         : Technical directorship


 We gratefully acknowledge several colleagues who have allowed us to
 interface, adapt or use parts of their codes:
   Stefan Grimme, W. Hujo, H. Kruse, P. Pracht,  : VdW corrections, initial TS optimization,
                  C. Bannwarth, S. Ehlert          DFT functionals, gCP, sTDA/sTD-DF
   Ed Valeev, F. Pavosevic, A. Kumar             : LibInt (2-el integral package), F12 methods
   Garnet Chan, S. Sharma, J. Yang, R. Olivares  : DMRG
   Ulf Ekstrom                                   : XCFun DFT Library
   Mihaly Kallay                                 : mrcc  (arbitrary order and MRCC methods)
   Jiri Pittner, Ondrej Demel                    : Mk-CCSD
   Frank Weinhold                                : gennbo (NPA and NBO analysis)
   Christopher J. Cramer and Donald G. Truhlar   : smd solvation model
   Lars Goerigk                                  : TD-DFT with DH, B97 family of functionals
   V. Asgeirsson, H. Jonsson                     : NEB implementation
   FAccTs GmbH                                   : IRC, NEB, NEB-TS, DLPNO-Multilevel, CI-OPT
                                                   MM, QMMM, 2- and 3-layer-ONIOM, Crystal-QMMM,
                                                   LR-CPCM, SF, NACMEs, symmetry and pop. for TD-DFT,
                                                   nearIR, NL-DFT gradient (VV10), updates on ESD,
                                                   ML-optimized integration grids
   S Lehtola, MJT Oliveira, MAL Marques          : LibXC Library
   Liviu Ungur et al                             : ANISO software


 Your calculation uses the libint2 library for the computation of 2-el integrals
 For citations please refer to: http://libint.valeyev.net

 Your ORCA version has been built with support for libXC version: 5.1.0
 For citations please refer to: https://tddft.org/programs/libxc/

 This ORCA versions uses:
   CBLAS   interface :  Fast vector & matrix operations
   LAPACKE interface :  Fast linear algebra routines
   SCALAPACK package :  Parallel linear algebra routines
   Shared memory     :  Shared parallel matrices
   BLAS/LAPACK       :  OpenBLAS 0.3.15  USE64BITINT DYNAMIC_ARCH NO_AFFINITY Haswell SINGLE_THREADED
        Core in use  :  Haswell
   Copyright (c) 2011-2014, The OpenBLAS Project


Your calculation utilizes the atom-pairwise dispersion correction
with the Becke-Johnson damping scheme (D3BJ)
Cite in your paper:
S.Grimme, S.Ehrlich, L.Goerigk, J Comput Chem, (2011), 32, 1456–1465 
S.Grimme, J.Antony, S.Ehrlich and H.Krieg, J.Chem.Phys., 132, (2010), 154104 
   

================================================================================

----- Orbital basis set information -----
Your calculation utilizes the basis: def2-TZVP
   F. Weigend and R. Ahlrichs, Phys. Chem. Chem. Phys. 7, 3297 (2005).

----- AuxJ basis set information -----
Your calculation utilizes the auxiliary basis: def2/J
   F. Weigend, Phys. Chem. Chem. Phys. 8, 1057 (2006).

================================================================================
                                        WARNINGS
                       Please study these warnings very carefully!
================================================================================

WARNING: Old DensityContainer found on disk!
         Will remove this file - 
         If you want to keep old densities, please start your calculation with a different basename. 


WARNING: your system is open-shell and RHF/RKS was chosen
  ===> : WILL SWITCH to UHF/UKS


INFO   : the flag for use of the SHARK integral package has been found!

================================================================================
                                       INPUT FILE
================================================================================
NAME = ex1.inp
|  1> ! PBE D3 def2-TZVP opt PModel NOAUTOSTART cpcm(water)
|  2> %pal nprocs=16 end
|  3> %geom maxiter=150 end
|  4> %base "3_M0003"
|  5> *xyz 0 2
|  6> O      2.113215   -2.327949    0.984763
|  7> C      1.728841   -1.119246    0.560103
|  8> C      0.470145   -0.849418    0.004571
|  9> C      0.122364    0.434510   -0.471769
| 10> C     -1.210138    0.654733   -1.118974
| 11> C     -2.394359    0.476399   -0.120911
| 12> N     -3.728611    0.469096   -0.699432
| 13> H     -4.744741    0.647119    0.093548
| 14> H     -3.965593    1.344633   -1.163480
| 15> H     -3.837240   -0.280893   -1.385454
| 16> C      1.069457    1.479133   -0.347320
| 17> C      2.299427    1.263778    0.219355
| 18> C      2.726309   -0.033318    0.708090
| 19> O      3.835258   -0.241248    1.234505
| 20> H      1.324584   -2.909073    1.031630
| 21> H     -0.211146   -1.699059   -0.264761
| 22> H     -1.243258    1.676613   -1.531255
| 23> H     -1.349167   -0.041753   -1.964636
| 24> H     -2.241012   -0.474188    0.413020
| 25> H     -2.324118    1.278193    0.626020
| 26> H      0.802405    2.472269   -0.718326
| 27> H      3.020841    2.070066    0.324006
| 28> Cu    -7.299264    1.661272   -2.707723
| 29> *
| 30> 
| 31>                          ****END OF INPUT****
================================================================================

                       *****************************
                       * Geometry Optimization Run *
                       *****************************

Geometry optimization settings:
Update method            Update   .... BFGS
Choice of coordinates    CoordSys .... Z-matrix Internals
Initial Hessian          InHess   .... Almoef's Model

Convergence Tolerances:
Energy Change            TolE     ....  5.0000e-06 Eh
Max. Gradient            TolMAXG  ....  3.0000e-04 Eh/bohr
RMS Gradient             TolRMSG  ....  1.0000e-04 Eh/bohr
Max. Displacement        TolMAXD  ....  4.0000e-03 bohr
RMS Displacement         TolRMSD  ....  2.0000e-03 bohr
Strict Convergence                ....  False
------------------------------------------------------------------------------
                        ORCA OPTIMIZATION COORDINATE SETUP
------------------------------------------------------------------------------

The optimization will be done in new redundant internal coordinates
Making redundant internal coordinates   ...  (new redundants) done
Evaluating the initial hessian          ...  (Almloef) done
Evaluating the coordinates              ...  done
Calculating the B-matrix                .... done
Calculating the G-matrix                .... done
Diagonalizing the G-matrix              .... done
Small eigenvalue found = 8.283e-03
Small eigenvalue found = 1.643e-02
The first mode is                       ....   57
The number of degrees of freedom        ....   63

    -----------------------------------------------------------------
                    Redundant Internal Coordinates


    -----------------------------------------------------------------
         Definition                    Initial Value    Approx d2E/dq
    -----------------------------------------------------------------
      1. B(C   1,O   0)                  1.3376         0.678507   
      2. B(C   2,C   1)                  1.4020         0.597746   
      3. B(C   3,C   2)                  1.4129         0.574358   
      4. B(C   4,C   3)                  1.4976         0.420728   
      5. B(C   5,C   4)                  1.5589         0.335889   
      6. B(N   6,C   5)                  1.4543         0.441876   
      7. B(H   7,N   6)                  1.3012         0.148477   
      8. B(H   8,N   6)                  1.0189         0.418858   
      9. B(H   9,N   6)                  1.0222         0.413730   
     10. B(C  10,C   3)                  1.4155         0.568873   
     11. B(C  11,C  10)                  1.3712         0.669351   
     12. B(C  12,C  11)                  1.4504         0.500537   
     13. B(C  12,C   1)                  1.4819         0.445747   
     14. B(O  13,C  12)                  1.2450         0.953138   
     15. B(H  14,O   0)                  0.9807         0.481821   
     16. B(H  15,C   2)                  1.1219         0.320317   
     17. B(H  16,C   4)                  1.1024         0.344050   
     18. B(H  17,C   4)                  1.1043         0.341621   
     19. B(H  18,C   5)                  1.1010         0.345831   
     20. B(H  19,C   5)                  1.0980         0.349607   
     21. B(H  20,C  10)                  1.0933         0.355775   
     22. B(H  21,C  11)                  1.0870         0.364139   
     23. B(Cu 22,H   9)                  4.1840         0.000042   
     24. B(Cu 22,H   8)                  3.6876         0.000261   
     25. B(Cu 22,H   7)                  3.9244         0.000109   
     26. B(Cu 22,N   6)                  4.2666         0.000146   
     27. A(C   1,O   0,H  14)          108.6357         0.371009   
     28. A(O   0,C   1,C   2)          123.8970         0.435405   
     29. A(C   2,C   1,C  12)          120.1863         0.406595   
     30. A(O   0,C   1,C  12)          115.9166         0.413148   
     31. A(C   1,C   2,C   3)          121.9679         0.425351   
     32. A(C   1,C   2,H  15)          119.6409         0.343890   
     33. A(C   3,C   2,H  15)          117.2446         0.341598   
     34. A(C   2,C   3,C  10)          118.4425         0.421603   
     35. A(C   2,C   3,C   4)          119.8887         0.399651   
     36. A(C   4,C   3,C  10)          121.6531         0.398977   
     37. A(C   3,C   4,H  17)          110.4993         0.327871   
     38. A(C   5,C   4,H  16)          108.8229         0.316364   
     39. A(C   3,C   4,H  16)          108.9444         0.328254   
     40. A(H  16,C   4,H  17)          107.1244         0.286399   
     41. A(C   5,C   4,H  17)          108.8127         0.316000   
     42. A(C   3,C   4,C   5)          112.4810         0.364131   
     43. A(N   6,C   5,H  18)          108.4430         0.329214   
     44. A(C   4,C   5,H  18)          107.6642         0.316630   
     45. A(H  18,C   5,H  19)          106.9568         0.287667   
     46. A(N   6,C   5,H  19)          109.4482         0.329806   
     47. A(C   4,C   5,N   6)          116.2841         0.364913   
     48. A(C   4,C   5,H  19)          107.6604         0.317190   
     49. A(C   5,N   6,H   8)          112.9710         0.336936   
     50. A(C   5,N   6,H   7)          118.2523         0.285063   
     51. A(H   8,N   6,H   9)          107.4638         0.299537   
     52. A(H   8,N   6,Cu 22)           49.5222         0.135762   
     53. A(H   7,N   6,H   9)          115.2392         0.255489   
     54. A(H   9,N   6,Cu 22)           78.4736         0.135631   
     55. A(C   5,N   6,Cu 22)          162.4860         0.143915   
     56. A(C   5,N   6,H   9)          111.6018         0.336246   
     57. A(H   7,N   6,Cu 22)           66.1139         0.125978   
     58. A(H   7,N   6,H   8)           88.7600         0.255954   
     59. A(C   3,C  10,C  11)          121.3708         0.433327   
     60. A(C  11,C  10,H  20)          120.1323         0.356790   
     61. A(C   3,C  10,H  20)          118.4965         0.347111   
     62. A(C  12,C  11,H  21)          115.8238         0.341064   
     63. A(C  10,C  11,H  21)          121.2388         0.358202   
     64. A(C  10,C  11,C  12)          122.9368         0.423496   
     65. A(C  11,C  12,O  13)          123.6413         0.448374   
     66. A(C   1,C  12,O  13)          121.2895         0.439067   
     67. A(C   1,C  12,C  11)          115.0613         0.394090   
     68. D(C   2,C   1,O   0,H  14)    -12.7434         0.034276   
     69. D(C  12,C   1,O   0,H  14)    167.1769         0.034276   
     70. D(C   3,C   2,C   1,C  12)      2.2176         0.024622   
     71. D(H  15,C   2,C   1,C  12)    169.6385         0.024622   
     72. D(H  15,C   2,C   1,O   0)    -10.4445         0.024622   
     73. D(C   3,C   2,C   1,O   0)   -177.8653         0.024622   
     74. D(C   4,C   3,C   2,C   1)    176.9383         0.022644   
     75. D(C  10,C   3,C   2,C   1)     -1.6476         0.022644   
     76. D(C  10,C   3,C   2,H  15)   -169.3547         0.022644   
     77. D(C   4,C   3,C   2,H  15)      9.2312         0.022644   
     78. D(H  16,C   4,C   3,C  10)      5.4787         0.013088   
     79. D(C   5,C   4,C   3,C   2)     66.1944         0.013088   
     80. D(H  17,C   4,C   3,C   2)    -55.6294         0.013088   
     81. D(C   5,C   4,C   3,C  10)   -115.2663         0.013088   
     82. D(H  16,C   4,C   3,C   2)   -173.0606         0.013088   
     83. D(H  17,C   4,C   3,C  10)    122.9099         0.013088   
     84. D(H  19,C   5,C   4,H  17)   -171.3226         0.009156   
     85. D(H  19,C   5,C   4,H  16)    -54.9141         0.009156   
     86. D(H  18,C   5,C   4,H  17)     73.6780         0.009156   
     87. D(H  18,C   5,C   4,H  16)   -169.9135         0.009156   
     88. D(H  18,C   5,C   4,C   3)    -49.0987         0.009156   
     89. D(H  19,C   5,C   4,C   3)     65.9007         0.009156   
     90. D(N   6,C   5,C   4,H  17)    -48.1640         0.009156   
     91. D(N   6,C   5,C   4,H  16)     68.2444         0.009156   
     92. D(N   6,C   5,C   4,C   3)   -170.9407         0.009156   
     93. D(H   8,N   6,C   5,H  18)    176.4501         0.018984   
     94. D(H   8,N   6,C   5,C   4)    -62.1200         0.018984   
     95. D(H   7,N   6,C   5,H  19)    -41.4975         0.018984   
     96. D(H   7,N   6,C   5,H  18)     74.8490         0.018984   
     97. D(H   8,N   6,C   5,H  19)     60.1035         0.018984   
     98. D(H   7,N   6,C   5,C   4)   -163.7210         0.018984   
     99. D(Cu 22,N   6,C   5,H  19)     58.6033         0.018984   
    100. D(Cu 22,N   6,C   5,H  18)    174.9499         0.018984   
    101. D(Cu 22,N   6,C   5,C   4)    -63.6201         0.018984   
    102. D(H   9,N   6,C   5,H  19)   -178.6706         0.018984   
    103. D(H   9,N   6,C   5,H  18)    -62.3240         0.018984   
    104. D(H   9,N   6,C   5,C   4)     59.1060         0.018984   
    105. D(H  20,C  10,C   3,C   4)      1.2600         0.022196   
    106. D(H  20,C  10,C   3,C   2)    179.8197         0.022196   
    107. D(C  11,C  10,C   3,C   4)   -178.5196         0.022196   
    108. D(C  11,C  10,C   3,C   2)      0.0401         0.022196   
    109. D(H  21,C  11,C  10,H  20)      0.9209         0.031329   
    110. D(H  21,C  11,C  10,C   3)   -179.3031         0.031329   
    111. D(C  12,C  11,C  10,H  20)   -178.8074         0.031329   
    112. D(C  12,C  11,C  10,C   3)      0.9686         0.031329   
    113. D(O  13,C  12,C  11,H  21)      0.8659         0.017065   
    114. D(O  13,C  12,C  11,C  10)   -179.3921         0.017065   
    115. D(C   1,C  12,C  11,H  21)    179.8591         0.017065   
    116. D(C   1,C  12,C  11,C  10)     -0.3989         0.017065   
    117. D(O  13,C  12,C   1,C   2)    177.8570         0.013549   
    118. D(O  13,C  12,C   1,O   0)     -2.0664         0.013549   
    119. D(C  11,C  12,C   1,C   2)     -1.1621         0.013549   
    120. D(C  11,C  12,C   1,O   0)    178.9144         0.013549   
    -----------------------------------------------------------------

Number of atoms                         .... 23
Number of degrees of freedom            .... 120

         *************************************************************
         *                GEOMETRY OPTIMIZATION CYCLE   1            *
         *************************************************************
---------------------------------
CARTESIAN COORDINATES (ANGSTROEM)
---------------------------------
  O      2.113215   -2.327949    0.984763
  C      1.728841   -1.119246    0.560103
  C      0.470145   -0.849418    0.004571
  C      0.122364    0.434510   -0.471769
  C     -1.210138    0.654733   -1.118974
  C     -2.394359    0.476399   -0.120911
  N     -3.728611    0.469096   -0.699432
  H     -4.744741    0.647119    0.093548
  H     -3.965593    1.344633   -1.163480
  H     -3.837240   -0.280893   -1.385454
  C      1.069457    1.479133   -0.347320
  C      2.299427    1.263778    0.219355
  C      2.726309   -0.033318    0.708090
  O      3.835258   -0.241248    1.234505
  H      1.324584   -2.909073    1.031630
  H     -0.211146   -1.699059   -0.264761
  H     -1.243258    1.676613   -1.531255
  H     -1.349167   -0.041753   -1.964636
  H     -2.241012   -0.474188    0.413020
  H     -2.324118    1.278193    0.626020
  H      0.802405    2.472269   -0.718326
  H      3.020841    2.070066    0.324006
  Cu    -7.299264    1.661272   -2.707723

----------------------------
CARTESIAN COORDINATES (A.U.)
----------------------------
  NO LB      ZA    FRAG     MASS         X           Y           Z
   0 O     8.0000    0    15.999    3.993398   -4.399186    1.860932
   1 C     6.0000    0    12.011    3.267036   -2.115068    1.058441
   2 C     6.0000    0    12.011    0.888445   -1.605167    0.008638
   3 C     6.0000    0    12.011    0.231234    0.821105   -0.891514
   4 C     6.0000    0    12.011   -2.286829    1.237266   -2.114554
   5 C     6.0000    0    12.011   -4.524683    0.900264   -0.228489
   6 N     7.0000    0    14.007   -7.046054    0.886463   -1.321735
   7 H     1.0000    0     1.008   -8.966261    1.222878    0.176780
   8 H     1.0000    0     1.008   -7.493885    2.540988   -2.198659
   9 H     1.0000    0     1.008   -7.251333   -0.530811   -2.618129
  10 C     6.0000    0    12.011    2.020981    2.795156   -0.656340
  11 C     6.0000    0    12.011    4.345287    2.388194    0.414521
  12 C     6.0000    0    12.011    5.151977   -0.062962    1.338096
  13 O     8.0000    0    15.999    7.247587   -0.455893    2.332876
  14 H     1.0000    0     1.008    2.503101   -5.497351    1.949498
  15 H     1.0000    0     1.008   -0.399008   -3.210756   -0.500326
  16 H     1.0000    0     1.008   -2.349417    3.168339   -2.893653
  17 H     1.0000    0     1.008   -2.549556   -0.078902   -3.712624
  18 H     1.0000    0     1.008   -4.234899   -0.896085    0.780495
  19 H     1.0000    0     1.008   -4.391947    2.415435    1.183006
  20 H     1.0000    0     1.008    1.516326    4.671911   -1.357439
  21 H     1.0000    0     1.008    5.708562    3.911858    0.612283
  22 Cu   29.0000    0    63.550  -13.793610    3.139349   -5.116855

--------------------------------
INTERNAL COORDINATES (ANGSTROEM)
--------------------------------
 O      0   0   0     0.000000000000     0.00000000     0.00000000
 C      1   0   0     1.337550907325     0.00000000     0.00000000
 C      2   1   0     1.402047992411   123.89701305     0.00000000
 C      3   2   1     1.412912781719   121.96785836   182.13467250
 C      4   3   2     1.497642835177   119.88874482   176.93831216
 C      5   4   3     1.558945843949   112.48099223    66.19437006
 N      6   5   4     1.454293051883   116.28410484   189.05927900
 H      7   6   5     1.301164726631   118.25229997   196.27900295
 H      7   6   5     1.018855265971   112.97098978   297.88004848
 H      7   6   5     1.022208366355   111.60179457    59.10595710
 C      4   3   2     1.415524608186   118.44251592   358.35241461
 C     11   4   3     1.371249259817   121.37075856     0.04011301
 C     12  11   4     1.450361394744   122.93682202     0.96857453
 O     13  12  11     1.245036353576   123.64133122   180.60786247
 H      1   2   3     0.980734659949   108.63569001   347.25660432
 H      3   2   1     1.121867631134   119.64092408   349.55551489
 H      5   4   3     1.102411580019   108.94440895   186.93944648
 H      5   4   3     1.104339634932   110.49928435   304.37064049
 H      6   5   4     1.101005567533   107.66416561   310.90129424
 H      6   5   4     1.098049787249   107.66038542    65.90073286
 H     11   4   3     1.093289228537   118.49654532   179.81969862
 H     12  11   4     1.086963812710   121.23884313   180.69693959
 Cu     9   7   6     3.687588512241   118.34584312   180.59345940

---------------------------
INTERNAL COORDINATES (A.U.)
---------------------------
 O      0   0   0     0.000000000000     0.00000000     0.00000000
 C      1   0   0     2.527604905021     0.00000000     0.00000000
 C      2   1   0     2.649486732271   123.89701305     0.00000000
 C      3   2   1     2.670018208566   121.96785836   182.13467250
 C      4   3   2     2.830134804915   119.88874482   176.93831216
 C      5   4   3     2.945980702678   112.48099223    66.19437006
 N      6   5   4     2.748215586523   116.28410484   189.05927900
 H      7   6   5     2.458844988451   118.25229997   196.27900295
 H      7   6   5     1.925357422789   112.97098978   297.88004848
 H      7   6   5     1.931693864214   111.60179457    59.10595710
 C      4   3   2     2.674953845297   118.44251592   358.35241461
 C     11   4   3     2.591285562397   121.37075856     0.04011301
 C     12  11   4     2.740785831279   122.93682202     0.96857453
 O     13  12  11     2.352777735035   123.64133122   180.60786247
 H      1   2   3     1.853319917349   108.63569001   347.25660432
 H      3   2   1     2.120022581354   119.64092408   349.55551489
 H      5   4   3     2.083255973100   108.94440895   186.93944648
 H      5   4   3     2.086899468855   110.49928435   304.37064049
 H      6   5   4     2.080598994560   107.66416561   310.90129424
 H      6   5   4     2.075013379311   107.66038542    65.90073286
 H     11   4   3     2.066017227102   118.49654532   179.81969862
 H     12  11   4     2.054063923505   121.23884313   180.69693959
 Cu     9   7   6     6.968532382729   118.34584312   180.59345940

---------------------
BASIS SET INFORMATION
---------------------
There are 5 groups of distinct atoms

 Group   1 Type O   : 11s6p2d1f contracted to 5s3p2d1f pattern {62111/411/11/1}
 Group   2 Type C   : 11s6p2d1f contracted to 5s3p2d1f pattern {62111/411/11/1}
 Group   3 Type N   : 11s6p2d1f contracted to 5s3p2d1f pattern {62111/411/11/1}
 Group   4 Type H   : 5s1p contracted to 3s1p pattern {311/1}
 Group   5 Type Cu  : 17s11p7d1f contracted to 6s4p4d1f pattern {842111/6311/4111/1}

Atom   0O    basis set group =>   1
Atom   1C    basis set group =>   2
Atom   2C    basis set group =>   2
Atom   3C    basis set group =>   2
Atom   4C    basis set group =>   2
Atom   5C    basis set group =>   2
Atom   6N    basis set group =>   3
Atom   7H    basis set group =>   4
Atom   8H    basis set group =>   4
Atom   9H    basis set group =>   4
Atom  10C    basis set group =>   2
Atom  11C    basis set group =>   2
Atom  12C    basis set group =>   2
Atom  13O    basis set group =>   1
Atom  14H    basis set group =>   4
Atom  15H    basis set group =>   4
Atom  16H    basis set group =>   4
Atom  17H    basis set group =>   4
Atom  18H    basis set group =>   4
Atom  19H    basis set group =>   4
Atom  20H    basis set group =>   4
Atom  21H    basis set group =>   4
Atom  22Cu   basis set group =>   5
---------------------------------
AUXILIARY/J BASIS SET INFORMATION
---------------------------------
There are 5 groups of distinct atoms

 Group   1 Type O   : 12s5p4d2f1g contracted to 6s4p3d1f1g pattern {711111/2111/211/2/1}
 Group   2 Type C   : 12s5p4d2f1g contracted to 6s4p3d1f1g pattern {711111/2111/211/2/1}
 Group   3 Type N   : 12s5p4d2f1g contracted to 6s4p3d1f1g pattern {711111/2111/211/2/1}
 Group   4 Type H   : 5s2p1d contracted to 3s1p1d pattern {311/2/1}
 Group   5 Type Cu  : 19s5p5d3f3g contracted to 8s5p4d3f3g pattern {121111111/11111/2111/111/111}

Atom   0O    basis set group =>   1
Atom   1C    basis set group =>   2
Atom   2C    basis set group =>   2
Atom   3C    basis set group =>   2
Atom   4C    basis set group =>   2
Atom   5C    basis set group =>   2
Atom   6N    basis set group =>   3
Atom   7H    basis set group =>   4
Atom   8H    basis set group =>   4
Atom   9H    basis set group =>   4
Atom  10C    basis set group =>   2
Atom  11C    basis set group =>   2
Atom  12C    basis set group =>   2
Atom  13O    basis set group =>   1
Atom  14H    basis set group =>   4
Atom  15H    basis set group =>   4
Atom  16H    basis set group =>   4
Atom  17H    basis set group =>   4
Atom  18H    basis set group =>   4
Atom  19H    basis set group =>   4
Atom  20H    basis set group =>   4
Atom  21H    basis set group =>   4
Atom  22Cu   basis set group =>   5
No protocol specified


           ************************************************************
           *        Program running with 16 parallel MPI-processes    *
           *              working on a common directory               *
           ************************************************************
------------------------------------------------------------------------------
                           ORCA GTO INTEGRAL CALCULATION
                           -- RI-GTO INTEGRALS CHOSEN --
------------------------------------------------------------------------------
------------------------------------------------------------------------------
                   ___                                                        
                  /   \      - P O W E R E D   B Y -                         
                 /     \                                                     
                 |  |  |   _    _      __       _____    __    __             
                 |  |  |  | |  | |    /  \     |  _  \  |  |  /  |          
                  \  \/   | |  | |   /    \    | | | |  |  | /  /          
                 / \  \   | |__| |  /  /\  \   | |_| |  |  |/  /          
                |  |  |   |  __  | /  /__\  \  |    /   |      \           
                |  |  |   | |  | | |   __   |  |    \   |  |\   \          
                \     /   | |  | | |  |  |  |  | |\  \  |  | \   \       
                 \___/    |_|  |_| |__|  |__|  |_| \__\ |__|  \__/        
                                                                              
                      - O R C A' S   B I G   F R I E N D -                    
                                      &                                       
                       - I N T E G R A L  F E E D E R -                       
                                                                              
 v1 FN, 2020, v2 2021                                                         
------------------------------------------------------------------------------


Reading SHARK input file 3_M0003.SHARKINP.tmp ... ok
----------------------
SHARK INTEGRAL PACKAGE
----------------------

Number of atoms                             ...     23
Number of basis functions                   ...    452
Number of shells                            ...    180
Maximum angular momentum                    ...      3
Integral batch strategy                     ... SHARK/LIBINT Hybrid
RI-J (if used) integral strategy            ... SPLIT-RIJ (Revised 2003 algorithm where possible)
Printlevel                                  ...      1
Contraction scheme used                     ... SEGMENTED contraction
Coulomb Range Separation                    ... NOT USED
Exchange Range Separation                   ... NOT USED
Finite Nucleus Model                        ... NOT USED
Auxiliary Coulomb fitting basis             ... AVAILABLE
   # of basis functions in Aux-J            ...    751
   # of shells in Aux-J                     ...    243
   Maximum angular momentum in Aux-J        ...      4
Auxiliary J/K fitting basis                 ... NOT available
Auxiliary Correlation fitting basis         ... NOT available
Auxiliary 'external' fitting basis          ... NOT available
Integral threshold                          ...     2.500000e-11
Primitive cut-off                           ...     2.500000e-12
Primitive pair pre-selection threshold      ...     2.500000e-12

Calculating pre-screening integrals         ... done (  0.1 sec) Dimension = 180
Organizing shell pair data                  ... done (  0.4 sec)
Shell pair information
Total number of shell pairs                 ...     16290
Shell pairs after pre-screening             ...     12295
Total number of primitive shell pairs       ...     52337
Primitive shell pairs kept                  ...     26982
          la=0 lb=0:   3375 shell pairs
          la=1 lb=0:   3500 shell pairs
          la=1 lb=1:    927 shell pairs
          la=2 lb=0:   1802 shell pairs
          la=2 lb=1:    935 shell pairs
          la=2 lb=2:    249 shell pairs
          la=3 lb=0:    807 shell pairs
          la=3 lb=1:    425 shell pairs
          la=3 lb=2:    219 shell pairs
          la=3 lb=3:     56 shell pairs

Calculating one electron integrals          ... done (  0.1 sec)
Calculating RI/J V-Matrix + Cholesky decomp.... done (  0.2 sec)
Calculating Nuclear repulsion               ... done (  0.0 sec) ENN=    752.478399175922 Eh

SHARK setup successfully completed in   1.2 seconds

Maximum memory used throughout the entire GTOINT-calculation: 28.7 MB
No protocol specified


           ************************************************************
           *        Program running with 16 parallel MPI-processes    *
           *              working on a common directory               *
           ************************************************************
-------------------------------------------------------------------------------
                                 ORCA SCF
-------------------------------------------------------------------------------

------------
SCF SETTINGS
------------
Hamiltonian:
 Density Functional     Method          .... DFT(GTOs)
 Exchange Functional    Exchange        .... PBE
   PBE kappa parameter   XKappa         ....  0.804000
   PBE mue parameter    XMuePBE         ....  0.219520
 Correlation Functional Correlation     .... PBE
   PBE beta parameter  CBetaPBE         ....  0.066725
 LDA part of GGA corr.  LDAOpt          .... PW91-LDA
 Gradients option       PostSCFGGA      .... off
   Density functional embedding theory  .... OFF
   NL short-range parameter             ....  6.400000
 RI-approximation to the Coulomb term is turned on
   Number of AuxJ basis functions       .... 751


General Settings:
 Integral files         IntName         .... 3_M0003
 Hartree-Fock type      HFTyp           .... UHF
 Total Charge           Charge          ....    0
 Multiplicity           Mult            ....    2
 Number of Electrons    NEL             ....  111
 Basis Dimension        Dim             ....  452
 Nuclear Repulsion      ENuc            ....    752.4783991759 Eh

Convergence Acceleration:
 DIIS                   CNVDIIS         .... on
   Start iteration      DIISMaxIt       ....    12
   Startup error        DIISStart       ....  0.200000
   # of expansion vecs  DIISMaxEq       ....     5
   Bias factor          DIISBfac        ....   1.050
   Max. coefficient     DIISMaxC        ....  10.000
 Trust-Rad. Augm. Hess. CNVTRAH         .... auto
   Auto Start mean grad. ratio tolernc. ....  1.125000
   Auto Start start iteration           ....    20
   Auto Start num. interpolation iter.  ....    10
   Max. Number of Micro iterations      ....    16
   Max. Number of Macro iterations      .... Maxiter - #DIIS iter
   Number of Davidson start vectors     ....     2
   Converg. threshold I  (grad. norm)   ....   1.000e-05
   Converg. threshold II (energy diff.) ....   1.000e-08
   Grad. Scal. Fac. for Micro threshold ....   0.100
   Minimum threshold for Micro iter.    ....   0.010
   NR start threshold (gradient norm)   ....   0.001
   Initial trust radius                 ....   0.400
   Minimum AH scaling param. (alpha)    ....   1.000
   Maximum AH scaling param. (alpha)    .... 1000.000
   Orbital update algorithm             .... Taylor
   White noise on init. David. guess    .... on
   Maximum white noise                  ....   0.010
   Quad. conv. algorithm                .... NR
 SOSCF                  CNVSOSCF        .... off
 Level Shifting         CNVShift        .... on
   Level shift para.    LevelShift      ....    0.2500
   Turn off err/grad.   ShiftErr        ....    0.0010
 Zerner damping         CNVZerner       .... off
 Static damping         CNVDamp         .... on
   Fraction old density DampFac         ....    0.7000
   Max. Damping (<1)    DampMax         ....    0.9800
   Min. Damping (>=0)   DampMin         ....    0.0000
   Turn off err/grad.   DampErr         ....    0.1000
 Fernandez-Rico         CNVRico         .... off

SCF Procedure:
 Maximum # iterations   MaxIter         ....   125
 SCF integral mode      SCFMode         .... Direct
   Integral package                     .... SHARK and LIBINT hybrid scheme
 Reset frequency        DirectResetFreq ....    20
 Integral Threshold     Thresh          ....  2.500e-11 Eh
 Primitive CutOff       TCut            ....  2.500e-12 Eh

Convergence Tolerance:
 Convergence Check Mode ConvCheckMode   .... Total+1el-Energy
 Convergence forced     ConvForced      .... 0
 Energy Change          TolE            ....  1.000e-08 Eh
 1-El. energy change                    ....  1.000e-05 Eh
 DIIS Error             TolErr          ....  5.000e-07


Diagonalization of the overlap matrix:
Smallest eigenvalue                        ... 1.496e-05
Time for diagonalization                   ...    0.054 sec
Threshold for overlap eigenvalues          ... 1.000e-08
Number of eigenvalues below threshold      ... 0
Time for construction of square roots      ...    0.052 sec
Total time needed                          ...    0.108 sec

Time for model grid setup =    0.263 sec

------------------------------
INITIAL GUESS: MODEL POTENTIAL
------------------------------
Loading Hartree-Fock densities                     ... done
Calculating cut-offs                               ... done
Initializing the effective Hamiltonian             ... done
Setting up the integral package (SHARK)            ... done
Starting the Coulomb interaction                   ... done (   0.3 sec)
Reading the grid                                   ... done
Mapping shells                                     ... done
Starting the XC term evaluation                    ... done (   0.1 sec)
  promolecular density results
     # of electrons  =    110.991796578
     EX              =   -132.418056439
     EC              =     -4.064143490
     EX+EC           =   -136.482199929
Transforming the Hamiltonian                       ... done (   0.0 sec)
Diagonalizing the Hamiltonian                      ... done (   0.1 sec)
Back transforming the eigenvectors                 ... done (   0.0 sec)
Now organizing SCF variables                       ... done
                      ------------------
                      INITIAL GUESS DONE (   0.9 sec)
                      ------------------
-------------------
DFT GRID GENERATION
-------------------

General Integration Accuracy     IntAcc      ... 4.388
Radial Grid Type                 RadialGrid  ... OptM3 with GC (2021)
Angular Grid (max. ang.)         AngularGrid ... 4 (Lebedev-302)
Angular grid pruning method      GridPruning ... 4 (adaptive)
Weight generation scheme         WeightScheme... Becke
Basis function cutoff            BFCut       ... 1.0000e-11
Integration weight cutoff        WCut        ... 1.0000e-14
Angular grids for H and He will be reduced by one unit
Partially contracted basis set               ... off
Rotationally invariant grid construction     ... off

Total number of grid points                  ...   112732
Total number of batches                      ...     1774
Average number of points per batch           ...       63
Average number of grid points per atom       ...     4901
Time for grid setup =    1.146 sec


--------------------
CPCM SOLVATION MODEL
--------------------
CPCM parameters:
  Epsilon                                         ...      80.4000
  Refrac                                          ...       1.3300
  Rsolv                                           ...       1.3000
  Surface type                                    ... GAUSSIAN VDW
  Epsilon function type                           ...         CPCM
Radii:
 Radius for O  used is    3.4469 Bohr (=   1.8240 Ang.)
 Radius for C  used is    3.8550 Bohr (=   2.0400 Ang.)
 Radius for N  used is    3.5149 Bohr (=   1.8600 Ang.)
 Radius for H  used is    2.4944 Bohr (=   1.3200 Ang.)
 Radius for Cu used is    3.1747 Bohr (=   1.6800 Ang.)
Calculating surface                               ...        done! (  0.0s)
GEPOL surface points                              ...         1389
GEPOL Volume                                      ...    1429.9500
GEPOL Surface-area                                ...     857.5941
Calculating surface distance matrix               ...        done! (  0.1s)
Performing Cholesky decomposition & store         ...        done! (  0.4s)
Overall time for CPCM initialization              ...                 0.4s
--------------
SCF ITERATIONS
--------------
ITER       Energy         Delta-E        Max-DP      RMS-DP      [F,P]     Damp
               ***  Starting incremental Fock matrix formation  ***
  0  -2156.0464633113   0.000000000000 0.41991494  0.00256342  0.3277488 0.7000
  1  -2156.2369077118  -0.190444400443 0.35173275  0.00215161  0.1037583 0.7000
                               ***Turning on DIIS***
  2  -2156.3017803386  -0.064872626854 0.24031071  0.00187111  0.0452840 0.0000
  3  -2156.4113634705  -0.109583131873 0.33701368  0.00200137  0.0929332 0.0000
  4  -2156.4407582039  -0.029394733341 0.07426282  0.00048489  0.0223827 0.0000
  5  -2156.4433296134  -0.002571409500 0.03603225  0.00024239  0.0110875 0.0000
  6  -2156.4435883361  -0.000258722741 0.01382502  0.00009986  0.0066862 0.0000
  7  -2156.4436302309  -0.000041894811 0.00234064  0.00002215  0.0033384 0.0000
  8  -2156.4436442276  -0.000013996655 0.00449607  0.00003560  0.0003939 0.0000
  9  -2156.4436542159  -0.000009988305 0.00033850  0.00000339  0.0004791 0.0000
 10  -2156.4436550684  -0.000000852547 0.00037118  0.00000234  0.0001441 0.0000
 11  -2156.4436551353  -0.000000066916 0.00026446  0.00000166  0.0000899 0.0000
 12  -2156.4436551988  -0.000000063420 0.00016149  0.00000093  0.0000540 0.0000
 13  -2156.4436552014  -0.000000002647 0.00012367  0.00000079  0.0000488 0.0000
 14  -2156.4436552091  -0.000000007714 0.00004628  0.00000041  0.0000249 0.0000
 15  -2156.4436552110  -0.000000001836 0.00003018  0.00000025  0.0000060 0.0000
 16  -2156.4436552083   0.000000002605 0.00002292  0.00000023  0.0000019 0.0000
                            ***DIIS convergence achieved***

               *****************************************************
               *                     SUCCESS                       *
               *           SCF CONVERGED AFTER  17 CYCLES          *
               *****************************************************


----------------
TOTAL SCF ENERGY
----------------

Total Energy       :        -2156.44365521 Eh          -58679.81508 eV

Components:
Nuclear Repulsion  :          752.47839918 Eh           20475.97822 eV
Electronic Energy  :        -2908.92205439 Eh          -79155.79330 eV
One Electron Energy:        -4484.08256625 Eh         -122018.08991 eV
Two Electron Energy:         1575.16051186 Eh           42862.29660 eV
CPCM Dielectric    :           -0.13683727 Eh              -3.72353 eV

Virial components:
Potential Energy   :        -4307.94212176 Eh         -117225.06474 eV
Kinetic Energy     :         2151.49846655 Eh           58545.24966 eV
Virial Ratio       :            2.00229849


DFT components:
N(Alpha)           :       56.000017482564 electrons
N(Beta)            :       55.000017988382 electrons
N(Total)           :      111.000035470946 electrons
E(X)               :     -133.789172136515 Eh       
E(C)               :       -4.080879245038 Eh       
E(XC)              :     -137.870051381554 Eh       
DFET-embed. en.    :        0.000000000000 Eh       
CPCM Solvation Model Properties:
Surface-charge          :           -0.08528849
Charge-correction       :            0.00010086 Eh               0.00274 eV
Free-energy (cav+disp)  :  This term is not implemented in the current solvation scheme

---------------
SCF CONVERGENCE
---------------

  Last Energy change         ...   -1.8044e-09  Tolerance :   1.0000e-08
  Last MAX-Density change    ...    2.2055e-05  Tolerance :   1.0000e-07
  Last RMS-Density change    ...    2.0797e-07  Tolerance :   5.0000e-09
  Last DIIS Error            ...    8.9803e-07  Tolerance :   5.0000e-07

             **** THE GBW FILE WAS UPDATED (3_M0003.gbw) ****
             **** DENSITY 3_M0003.scfp WAS UPDATED ****
             **** ENERGY FILE WAS UPDATED (3_M0003.en.tmp) ****
----------------------
UHF SPIN CONTAMINATION
----------------------

Warning: in a DFT calculation there is little theoretical justification to 
         calculate <S**2> as in Hartree-Fock theory. We will do it anyways
         but you should keep in mind that the values have only limited relevance

Expectation value of <S**2>     :     0.752407
Ideal value S*(S+1) for S=0.5   :     0.750000
Deviation                       :     0.002407

             **** THE GBW FILE WAS UPDATED (3_M0003.gbw) ****
             **** DENSITY 3_M0003.scfp WAS UPDATED ****
----------------
ORBITAL ENERGIES
----------------
                 SPIN UP ORBITALS
  NO   OCC          E(Eh)            E(eV) 
   0   1.0000    -321.457184     -8747.2947 
   1   1.0000     -38.217581     -1039.9532 
   2   1.0000     -33.509154      -911.8304 
   3   1.0000     -33.509138      -911.8300 
   4   1.0000     -33.509096      -911.8289 
   5   1.0000     -18.765543      -510.6364 
   6   1.0000     -18.662922      -507.8439 
   7   1.0000     -14.103481      -383.7752 
   8   1.0000      -9.933626      -270.3077 
   9   1.0000      -9.909221      -269.6436 
  10   1.0000      -9.900821      -269.4150 
  11   1.0000      -9.889462      -269.1059 
  12   1.0000      -9.863931      -268.4112 
  13   1.0000      -9.863405      -268.3969 
  14   1.0000      -9.857260      -268.2297 
  15   1.0000      -9.843307      -267.8500 
  16   1.0000      -4.050310      -110.2145 
  17   1.0000      -2.586524       -70.3829 
  18   1.0000      -2.586226       -70.3748 
  19   1.0000      -2.586218       -70.3746 
  20   1.0000      -0.964262       -26.2389 
  21   1.0000      -0.901354       -24.5271 
  22   1.0000      -0.879702       -23.9379 
  23   1.0000      -0.744578       -20.2610 
  24   1.0000      -0.691201       -18.8085 
  25   1.0000      -0.641729       -17.4623 
  26   1.0000      -0.621881       -16.9223 
  27   1.0000      -0.569769       -15.5042 
  28   1.0000      -0.538626       -14.6568 
  29   1.0000      -0.529414       -14.4061 
  30   1.0000      -0.491428       -13.3724 
  31   1.0000      -0.471184       -12.8216 
  32   1.0000      -0.450137       -12.2488 
  33   1.0000      -0.447383       -12.1739 
  34   1.0000      -0.411188       -11.1890 
  35   1.0000      -0.392752       -10.6873 
  36   1.0000      -0.378135       -10.2896 
  37   1.0000      -0.361185        -9.8283 
  38   1.0000      -0.351618        -9.5680 
  39   1.0000      -0.334889        -9.1128 
  40   1.0000      -0.331138        -9.0107 
  41   1.0000      -0.329783        -8.9739 
  42   1.0000      -0.311585        -8.4787 
  43   1.0000      -0.293982        -7.9997 
  44   1.0000      -0.286492        -7.7958 
  45   1.0000      -0.278839        -7.5876 
  46   1.0000      -0.253458        -6.8969 
  47   1.0000      -0.190306        -5.1785 
  48   1.0000      -0.166032        -4.5180 
  49   1.0000      -0.165927        -4.5151 
  50   1.0000      -0.165915        -4.5148 
  51   1.0000      -0.165816        -4.5121 
  52   1.0000      -0.165816        -4.5121 
  53   1.0000      -0.164837        -4.4854 
  54   1.0000      -0.151641        -4.1264 
  55   1.0000      -0.129423        -3.5218 
  56   0.0000      -0.060719        -1.6523 
  57   0.0000      -0.011591        -0.3154 
  58   0.0000       0.006038         0.1643 
  59   0.0000       0.016861         0.4588 
  60   0.0000       0.028903         0.7865 
  61   0.0000       0.039147         1.0652 
  62   0.0000       0.042926         1.1681 
  63   0.0000       0.060684         1.6513 
  64   0.0000       0.066096         1.7986 
  65   0.0000       0.067885         1.8472 
  66   0.0000       0.070509         1.9187 
  67   0.0000       0.073107         1.9893 
  68   0.0000       0.083078         2.2607 
  69   0.0000       0.095292         2.5930 
  70   0.0000       0.102237         2.7820 
  71   0.0000       0.107954         2.9376 
  72   0.0000       0.116591         3.1726 
  73   0.0000       0.123459         3.3595 
  74   0.0000       0.129352         3.5199 
  75   0.0000       0.145298         3.9538 
  76   0.0000       0.154091         4.1930 
  77   0.0000       0.163318         4.4441 
  78   0.0000       0.169750         4.6191 
  79   0.0000       0.174710         4.7541 
  80   0.0000       0.177449         4.8286 
  81   0.0000       0.178385         4.8541 
  82   0.0000       0.178595         4.8598 
  83   0.0000       0.183488         4.9930 
  84   0.0000       0.192854         5.2478 
  85   0.0000       0.193687         5.2705 
  86   0.0000       0.209197         5.6925 
  87   0.0000       0.217147         5.9089 
  88   0.0000       0.225752         6.1430 
  89   0.0000       0.228707         6.2234 
  90   0.0000       0.238938         6.5018 
  91   0.0000       0.248967         6.7747 
  92   0.0000       0.261671         7.1204 
  93   0.0000       0.268947         7.3184 
  94   0.0000       0.279218         7.5979 
  95   0.0000       0.283090         7.7033 
  96   0.0000       0.293686         7.9916 
  97   0.0000       0.297053         8.0832 
  98   0.0000       0.303935         8.2705 
  99   0.0000       0.315929         8.5969 
 100   0.0000       0.324791         8.8380 
 101   0.0000       0.329330         8.9615 
 102   0.0000       0.334684         9.1072 
 103   0.0000       0.341428         9.2907 
 104   0.0000       0.350948         9.5498 
 105   0.0000       0.354354         9.6425 
 106   0.0000       0.355372         9.6702 
 107   0.0000       0.366317         9.9680 
 108   0.0000       0.377421        10.2702 
 109   0.0000       0.388525        10.5723 
 110   0.0000       0.401368        10.9218 
 111   0.0000       0.407180        11.0799 
 112   0.0000       0.409823        11.1519 
 113   0.0000       0.414761        11.2862 
 114   0.0000       0.426815        11.6142 
 115   0.0000       0.428352        11.6560 
 116   0.0000       0.445314        12.1176 
 117   0.0000       0.452559        12.3148 
 118   0.0000       0.455576        12.3968 
 119   0.0000       0.459451        12.5023 
 120   0.0000       0.465944        12.6790 
 121   0.0000       0.471355        12.8262 
 122   0.0000       0.480590        13.0775 
 123   0.0000       0.486669        13.2429 
 124   0.0000       0.498550        13.5662 
 125   0.0000       0.515659        14.0318 
 126   0.0000       0.522881        14.2283 
 127   0.0000       0.545352        14.8398 
 128   0.0000       0.550347        14.9757 
 129   0.0000       0.565179        15.3793 
 130   0.0000       0.576041        15.6749 
 131   0.0000       0.583073        15.8662 
 132   0.0000       0.592947        16.1349 
 133   0.0000       0.602946        16.4070 
 134   0.0000       0.612575        16.6690 
 135   0.0000       0.621589        16.9143 
 136   0.0000       0.636803        17.3283 
 137   0.0000       0.646100        17.5813 
 138   0.0000       0.652672        17.7601 
 139   0.0000       0.687768        18.7151 
 140   0.0000       0.696764        18.9599 
 141   0.0000       0.710061        19.3217 
 142   0.0000       0.719830        19.5876 
 143   0.0000       0.727303        19.7909 
 144   0.0000       0.754823        20.5398 
 145   0.0000       0.778682        21.1890 
 146   0.0000       0.785393        21.3716 
 147   0.0000       0.788512        21.4565 
 148   0.0000       0.799982        21.7686 
 149   0.0000       0.807705        21.9788 
 150   0.0000       0.819985        22.3129 
 151   0.0000       0.843612        22.9559 
 152   0.0000       0.856577        23.3086 
 153   0.0000       0.859936        23.4001 
 154   0.0000       0.861010        23.4293 
 155   0.0000       0.862479        23.4692 
 156   0.0000       0.868884        23.6435 
 157   0.0000       0.870480        23.6870 
 158   0.0000       0.873077        23.7576 
 159   0.0000       0.876729        23.8570 
 160   0.0000       0.885121        24.0854 
 161   0.0000       0.890475        24.2310 
 162   0.0000       0.906853        24.6767 
 163   0.0000       0.934798        25.4371 
 164   0.0000       0.978261        26.6198 
 165   0.0000       0.990651        26.9570 
 166   0.0000       0.997840        27.1526 
 167   0.0000       1.022883        27.8341 
 168   0.0000       1.031766        28.0758 
 169   0.0000       1.046258        28.4701 
 170   0.0000       1.065025        28.9808 
 171   0.0000       1.084612        29.5138 
 172   0.0000       1.107063        30.1247 
 173   0.0000       1.124008        30.5858 
 174   0.0000       1.135614        30.9016 
 175   0.0000       1.145137        31.1607 
 176   0.0000       1.168496        31.7964 
 177   0.0000       1.175295        31.9814 
 178   0.0000       1.189877        32.3782 
 179   0.0000       1.202372        32.7182 
 180   0.0000       1.219846        33.1937 
 181   0.0000       1.224528        33.3211 
 182   0.0000       1.236199        33.6387 
 183   0.0000       1.254860        34.1465 
 184   0.0000       1.273649        34.6577 
 185   0.0000       1.292952        35.1830 
 186   0.0000       1.301047        35.4033 
 187   0.0000       1.316038        35.8112 
 188   0.0000       1.324238        36.0344 
 189   0.0000       1.343176        36.5497 
 190   0.0000       1.365217        37.1494 
 191   0.0000       1.370946        37.3053 
 192   0.0000       1.410831        38.3907 
 193   0.0000       1.416161        38.5357 
 194   0.0000       1.440281        39.1920 
 195   0.0000       1.448988        39.4290 
 196   0.0000       1.465750        39.8851 
 197   0.0000       1.474008        40.1098 
 198   0.0000       1.480384        40.2833 
 199   0.0000       1.490789        40.5664 
 200   0.0000       1.502964        40.8977 
 201   0.0000       1.514794        41.2196 
 202   0.0000       1.549000        42.1504 
 203   0.0000       1.552779        42.2533 
 204   0.0000       1.566195        42.6183 
 205   0.0000       1.568171        42.6721 
 206   0.0000       1.585829        43.1526 
 207   0.0000       1.615756        43.9670 
 208   0.0000       1.639132        44.6031 
 209   0.0000       1.651291        44.9339 
 210   0.0000       1.657929        45.1145 
 211   0.0000       1.660089        45.1733 
 212   0.0000       1.678816        45.6829 
 213   0.0000       1.684456        45.8364 
 214   0.0000       1.696540        46.1652 
 215   0.0000       1.705077        46.3975 
 216   0.0000       1.721224        46.8369 
 217   0.0000       1.754962        47.7549 
 218   0.0000       1.760031        47.8929 
 219   0.0000       1.767737        48.1026 
 220   0.0000       1.796738        48.8917 
 221   0.0000       1.806038        49.1448 
 222   0.0000       1.807380        49.1813 
 223   0.0000       1.811044        49.2810 
 224   0.0000       1.846127        50.2357 
 225   0.0000       1.857282        50.5392 
 226   0.0000       1.858147        50.5628 
 227   0.0000       1.875074        51.0234 
 228   0.0000       1.907342        51.9014 
 229   0.0000       1.913211        52.0611 
 230   0.0000       1.930842        52.5409 
 231   0.0000       1.936788        52.7027 
 232   0.0000       1.959763        53.3279 
 233   0.0000       1.964165        53.4476 
 234   0.0000       1.995818        54.3090 
 235   0.0000       2.006852        54.6092 
 236   0.0000       2.007928        54.6385 
 237   0.0000       2.013466        54.7892 
 238   0.0000       2.057480        55.9869 
 239   0.0000       2.066577        56.2344 
 240   0.0000       2.072053        56.3834 
 241   0.0000       2.080877        56.6235 
 242   0.0000       2.091295        56.9070 
 243   0.0000       2.098812        57.1116 
 244   0.0000       2.105572        57.2955 
 245   0.0000       2.142894        58.3111 
 246   0.0000       2.163655        58.8761 
 247   0.0000       2.180969        59.3472 
 248   0.0000       2.204349        59.9834 
 249   0.0000       2.208860        60.1061 
 250   0.0000       2.218405        60.3659 
 251   0.0000       2.226276        60.5801 
 252   0.0000       2.241902        61.0052 
 253   0.0000       2.289757        62.3075 
 254   0.0000       2.313188        62.9451 
 255   0.0000       2.338094        63.6228 
 256   0.0000       2.351955        63.9999 
 257   0.0000       2.359200        64.1971 
 258   0.0000       2.377418        64.6928 
 259   0.0000       2.391512        65.0763 
 260   0.0000       2.395080        65.1734 
 261   0.0000       2.411959        65.6327 
 262   0.0000       2.447743        66.6065 
 263   0.0000       2.470394        67.2228 
 264   0.0000       2.478299        67.4379 
 265   0.0000       2.497622        67.9638 
 266   0.0000       2.498541        67.9888 
 267   0.0000       2.510101        68.3033 
 268   0.0000       2.522595        68.6433 
 269   0.0000       2.553478        69.4837 
 270   0.0000       2.572315        69.9962 
 271   0.0000       2.575629        70.0864 
 272   0.0000       2.583573        70.3026 
 273   0.0000       2.592143        70.5358 
 274   0.0000       2.602603        70.8204 
 275   0.0000       2.622422        71.3597 
 276   0.0000       2.632731        71.6402 
 277   0.0000       2.653738        72.2119 
 278   0.0000       2.655354        72.2559 
 279   0.0000       2.677697        72.8638 
 280   0.0000       2.694950        73.3333 
 281   0.0000       2.707277        73.6688 
 282   0.0000       2.735690        74.4419 
 283   0.0000       2.747195        74.7550 
 284   0.0000       2.757989        75.0487 
 285   0.0000       2.763261        75.1922 
 286   0.0000       2.779154        75.6246 
 287   0.0000       2.784788        75.7779 
 288   0.0000       2.812926        76.5436 
 289   0.0000       2.818722        76.7013 
 290   0.0000       2.838592        77.2420 
 291   0.0000       2.840282        77.2880 
 292   0.0000       2.845960        77.4425 
 293   0.0000       2.857788        77.7644 
 294   0.0000       2.873887        78.2024 
 295   0.0000       2.883569        78.4659 
 296   0.0000       2.910280        79.1927 
 297   0.0000       2.921118        79.4877 
 298   0.0000       2.945349        80.1470 
 299   0.0000       2.958451        80.5036 
 300   0.0000       2.967454        80.7485 
 301   0.0000       2.987069        81.2823 
 302   0.0000       2.993233        81.4500 
 303   0.0000       2.997336        81.5617 
 304   0.0000       3.024442        82.2993 
 305   0.0000       3.044584        82.8473 
 306   0.0000       3.065784        83.4242 
 307   0.0000       3.075996        83.7021 
 308   0.0000       3.083719        83.9123 
 309   0.0000       3.097693        84.2925 
 310   0.0000       3.108175        84.5777 
 311   0.0000       3.119644        84.8898 
 312   0.0000       3.123936        85.0066 
 313   0.0000       3.136885        85.3590 
 314   0.0000       3.163940        86.0952 
 315   0.0000       3.175362        86.4060 
 316   0.0000       3.186051        86.6968 
 317   0.0000       3.193878        86.9098 
 318   0.0000       3.207395        87.2776 
 319   0.0000       3.207687        87.2856 
 320   0.0000       3.243099        88.2492 
 321   0.0000       3.253532        88.5331 
 322   0.0000       3.275911        89.1421 
 323   0.0000       3.283152        89.3391 
 324   0.0000       3.316220        90.2389 
 325   0.0000       3.325824        90.5003 
 326   0.0000       3.331187        90.6462 
 327   0.0000       3.339618        90.8756 
 328   0.0000       3.357136        91.3523 
 329   0.0000       3.366472        91.6064 
 330   0.0000       3.374564        91.8265 
 331   0.0000       3.395693        92.4015 
 332   0.0000       3.408923        92.7615 
 333   0.0000       3.417465        92.9939 
 334   0.0000       3.426661        93.2442 
 335   0.0000       3.432320        93.3982 
 336   0.0000       3.447568        93.8131 
 337   0.0000       3.471268        94.4580 
 338   0.0000       3.489209        94.9462 
 339   0.0000       3.499513        95.2266 
 340   0.0000       3.518343        95.7390 
 341   0.0000       3.540053        96.3297 
 342   0.0000       3.573659        97.2442 
 343   0.0000       3.573851        97.2494 
 344   0.0000       3.580709        97.4360 
 345   0.0000       3.582032        97.4720 
 346   0.0000       3.584774        97.5467 
 347   0.0000       3.590663        97.7069 
 348   0.0000       3.626022        98.6691 
 349   0.0000       3.644968        99.1846 
 350   0.0000       3.671901        99.9175 
 351   0.0000       3.686536       100.3158 
 352   0.0000       3.693556       100.5068 
 353   0.0000       3.703413       100.7750 
 354   0.0000       3.754015       102.1519 
 355   0.0000       3.771439       102.6261 
 356   0.0000       3.791495       103.1718 
 357   0.0000       3.815036       103.8124 
 358   0.0000       3.831699       104.2658 
 359   0.0000       3.850723       104.7835 
 360   0.0000       3.856854       104.9503 
 361   0.0000       3.879903       105.5775 
 362   0.0000       3.926252       106.8387 
 363   0.0000       3.937888       107.1554 
 364   0.0000       3.975662       108.1833 
 365   0.0000       3.993405       108.6661 
 366   0.0000       3.997640       108.7813 
 367   0.0000       4.029715       109.6541 
 368   0.0000       4.053423       110.2992 
 369   0.0000       4.059395       110.4617 
 370   0.0000       4.087164       111.2174 
 371   0.0000       4.120126       112.1143 
 372   0.0000       4.133838       112.4875 
 373   0.0000       4.155887       113.0874 
 374   0.0000       4.173348       113.5626 
 375   0.0000       4.190078       114.0178 
 376   0.0000       4.232202       115.1641 
 377   0.0000       4.266273       116.0912 
 378   0.0000       4.289871       116.7333 
 379   0.0000       4.339069       118.0721 
 380   0.0000       4.363593       118.7394 
 381   0.0000       4.405968       119.8925 
 382   0.0000       4.444914       120.9522 
 383   0.0000       4.470488       121.6482 
 384   0.0000       4.509928       122.7214 
 385   0.0000       4.537764       123.4788 
 386   0.0000       4.578219       124.5797 
 387   0.0000       4.593487       124.9951 
 388   0.0000       4.626132       125.8835 
 389   0.0000       4.641915       126.3129 
 390   0.0000       4.678241       127.3014 
 391   0.0000       4.683003       127.4310 
 392   0.0000       4.738700       128.9466 
 393   0.0000       4.767373       129.7268 
 394   0.0000       4.801108       130.6448 
 395   0.0000       4.830252       131.4378 
 396   0.0000       4.856827       132.1610 
 397   0.0000       4.900876       133.3596 
 398   0.0000       4.919466       133.8655 
 399   0.0000       4.944527       134.5474 
 400   0.0000       4.945569       134.5758 
 401   0.0000       4.985657       135.6666 
 402   0.0000       5.107032       138.9694 
 403   0.0000       5.110290       139.0580 
 404   0.0000       5.138387       139.8226 
 405   0.0000       5.159574       140.3991 
 406   0.0000       5.168602       140.6448 
 407   0.0000       5.247338       142.7873 
 408   0.0000       5.306450       144.3958 
 409   0.0000       5.315345       144.6379 
 410   0.0000       5.337357       145.2369 
 411   0.0000       5.345240       145.4514 
 412   0.0000       5.393275       146.7585 
 413   0.0000       5.506177       149.8307 
 414   0.0000       5.535859       150.6384 
 415   0.0000       5.634557       153.3241 
 416   0.0000       5.672243       154.3496 
 417   0.0000       5.693666       154.9325 
 418   0.0000       5.693666       154.9325 
 419   0.0000       5.693674       154.9327 
 420   0.0000       5.693676       154.9328 
 421   0.0000       5.693685       154.9331 
 422   0.0000       5.693686       154.9331 
 423   0.0000       5.693730       154.9343 
 424   0.0000       5.710206       155.3826 
 425   0.0000       5.888791       160.2422 
 426   0.0000       6.032604       164.1555 
 427   0.0000       6.112843       166.3389 
 428   0.0000       6.166854       167.8086 
 429   0.0000       6.298824       171.3997 
 430   0.0000       6.328216       172.1995 
 431   0.0000       6.345857       172.6795 
 432   0.0000       6.545390       178.1091 
 433   0.0000       6.598808       179.5627 
 434   0.0000       6.645433       180.8314 
 435   0.0000       6.670659       181.5179 
 436   0.0000       6.752131       183.7348 
 437   0.0000       6.839990       186.1256 
 438   0.0000       6.997735       190.4180 
 439   0.0000       7.020416       191.0352 
 440   0.0000       7.201235       195.9556 
 441   0.0000      21.943689       597.1181 
 442   0.0000      22.149449       602.7172 
 443   0.0000      22.244986       605.3168 
 444   0.0000      22.435868       610.5110 
 445   0.0000      22.505031       612.3930 
 446   0.0000      22.661578       616.6529 
 447   0.0000      22.704423       617.8188 
 448   0.0000      23.208676       631.5402 
 449   0.0000      31.567101       858.9845 
 450   0.0000      43.482724      1183.2251 
 451   0.0000      43.696691      1189.0474 

                 SPIN DOWN ORBITALS
  NO   OCC          E(Eh)            E(eV) 
   0   1.0000    -321.456311     -8747.2709 
   1   1.0000     -38.218983     -1039.9914 
   2   1.0000     -33.510034      -911.8544 
   3   1.0000     -33.510002      -911.8535 
   4   1.0000     -33.509974      -911.8528 
   5   1.0000     -18.765538      -510.6363 
   6   1.0000     -18.662898      -507.8433 
   7   1.0000     -14.103381      -383.7725 
   8   1.0000      -9.933607      -270.3072 
   9   1.0000      -9.909213      -269.6434 
  10   1.0000      -9.900819      -269.4150 
  11   1.0000      -9.889462      -269.1059 
  12   1.0000      -9.863917      -268.4108 
  13   1.0000      -9.863406      -268.3969 
  14   1.0000      -9.857259      -268.2297 
  15   1.0000      -9.843299      -267.8498 
  16   1.0000      -4.051970      -110.2597 
  17   1.0000      -2.587468       -70.4086 
  18   1.0000      -2.587401       -70.4068 
  19   1.0000      -2.587397       -70.4067 
  20   1.0000      -0.964252       -26.2386 
  21   1.0000      -0.901193       -24.5227 
  22   1.0000      -0.879666       -23.9369 
  23   1.0000      -0.744551       -20.2603 
  24   1.0000      -0.691138       -18.8068 
  25   1.0000      -0.641719       -17.4621 
  26   1.0000      -0.621796       -16.9199 
  27   1.0000      -0.569734       -15.5032 
  28   1.0000      -0.538603       -14.6561 
  29   1.0000      -0.529265       -14.4020 
  30   1.0000      -0.491406       -13.3718 
  31   1.0000      -0.471115       -12.8197 
  32   1.0000      -0.450028       -12.2459 
  33   1.0000      -0.447275       -12.1710 
  34   1.0000      -0.411160       -11.1882 
  35   1.0000      -0.392731       -10.6868 
  36   1.0000      -0.378109       -10.2889 
  37   1.0000      -0.361159        -9.8276 
  38   1.0000      -0.351597        -9.5674 
  39   1.0000      -0.334853        -9.1118 
  40   1.0000      -0.331106        -9.0099 
  41   1.0000      -0.329762        -8.9733 
  42   1.0000      -0.311569        -8.4782 
  43   1.0000      -0.293939        -7.9985 
  44   1.0000      -0.286479        -7.7955 
  45   1.0000      -0.278821        -7.5871 
  46   1.0000      -0.253410        -6.8956 
  47   1.0000      -0.190284        -5.1779 
  48   1.0000      -0.164815        -4.4848 
  49   1.0000      -0.160879        -4.3777 
  50   1.0000      -0.160772        -4.3748 
  51   1.0000      -0.160758        -4.3744 
  52   1.0000      -0.160615        -4.3705 
  53   1.0000      -0.160614        -4.3705 
  54   1.0000      -0.129385        -3.5208 
  55   0.0000      -0.118201        -3.2164 
  56   0.0000      -0.058775        -1.5994 
  57   0.0000      -0.011490        -0.3127 
  58   0.0000       0.006329         0.1722 
  59   0.0000       0.020324         0.5530 
  60   0.0000       0.030863         0.8398 
  61   0.0000       0.043843         1.1930 
  62   0.0000       0.045059         1.2261 
  63   0.0000       0.063229         1.7206 
  64   0.0000       0.070931         1.9301 
  65   0.0000       0.080047         2.1782 
  66   0.0000       0.087315         2.3760 
  67   0.0000       0.098112         2.6698 
  68   0.0000       0.104697         2.8490 
  69   0.0000       0.107851         2.9348 
  70   0.0000       0.110788         3.0147 
  71   0.0000       0.116658         3.1744 
  72   0.0000       0.119574         3.2538 
  73   0.0000       0.126763         3.4494 
  74   0.0000       0.133025         3.6198 
  75   0.0000       0.148281         4.0349 
  76   0.0000       0.156359         4.2548 
  77   0.0000       0.166720         4.5367 
  78   0.0000       0.173139         4.7114 
  79   0.0000       0.178487         4.8569 
  80   0.0000       0.180842         4.9210 
  81   0.0000       0.192472         5.2374 
  82   0.0000       0.203340         5.5332 
  83   0.0000       0.207172         5.6374 
  84   0.0000       0.208117         5.6632 
  85   0.0000       0.209563         5.7025 
  86   0.0000       0.215281         5.8581 
  87   0.0000       0.219499         5.9729 
  88   0.0000       0.228247         6.2109 
  89   0.0000       0.233738         6.3603 
  90   0.0000       0.239599         6.5198 
  91   0.0000       0.249157         6.7799 
  92   0.0000       0.263607         7.1731 
  93   0.0000       0.273434         7.4405 
  94   0.0000       0.279990         7.6189 
  95   0.0000       0.285558         7.7704 
  96   0.0000       0.294638         8.0175 
  97   0.0000       0.297600         8.0981 
  98   0.0000       0.306162         8.3311 
  99   0.0000       0.317280         8.6336 
 100   0.0000       0.325422         8.8552 
 101   0.0000       0.330687         8.9984 
 102   0.0000       0.335258         9.1228 
 103   0.0000       0.341520         9.2932 
 104   0.0000       0.351275         9.5587 
 105   0.0000       0.354546         9.6477 
 106   0.0000       0.355989         9.6870 
 107   0.0000       0.366964         9.9856 
 108   0.0000       0.377685        10.2773 
 109   0.0000       0.389065        10.5870 
 110   0.0000       0.401567        10.9272 
 111   0.0000       0.407379        11.0853 
 112   0.0000       0.410218        11.1626 
 113   0.0000       0.414826        11.2880 
 114   0.0000       0.427479        11.6323 
 115   0.0000       0.428963        11.6727 
 116   0.0000       0.445509        12.1229 
 117   0.0000       0.452735        12.3195 
 118   0.0000       0.456498        12.4219 
 119   0.0000       0.459885        12.5141 
 120   0.0000       0.466372        12.6906 
 121   0.0000       0.473278        12.8785 
 122   0.0000       0.480893        13.0858 
 123   0.0000       0.486962        13.2509 
 124   0.0000       0.498741        13.5714 
 125   0.0000       0.515868        14.0375 
 126   0.0000       0.523062        14.2332 
 127   0.0000       0.545487        14.8435 
 128   0.0000       0.550437        14.9782 
 129   0.0000       0.565263        15.3816 
 130   0.0000       0.576145        15.6777 
 131   0.0000       0.583147        15.8682 
 132   0.0000       0.592993        16.1362 
 133   0.0000       0.602980        16.4079 
 134   0.0000       0.612632        16.6706 
 135   0.0000       0.621657        16.9162 
 136   0.0000       0.636843        17.3294 
 137   0.0000       0.646135        17.5822 
 138   0.0000       0.652683        17.7604 
 139   0.0000       0.687801        18.7160 
 140   0.0000       0.696825        18.9616 
 141   0.0000       0.710101        19.3228 
 142   0.0000       0.719852        19.5882 
 143   0.0000       0.727389        19.7933 
 144   0.0000       0.754941        20.5430 
 145   0.0000       0.778729        21.1903 
 146   0.0000       0.785466        21.3736 
 147   0.0000       0.788539        21.4572 
 148   0.0000       0.800045        21.7703 
 149   0.0000       0.807841        21.9825 
 150   0.0000       0.820098        22.3160 
 151   0.0000       0.843821        22.9615 
 152   0.0000       0.857611        23.3368 
 153   0.0000       0.861597        23.4452 
 154   0.0000       0.870391        23.6846 
 155   0.0000       0.873578        23.7713 
 156   0.0000       0.884550        24.0698 
 157   0.0000       0.893773        24.3208 
 158   0.0000       0.894299        24.3351 
 159   0.0000       0.900114        24.4933 
 160   0.0000       0.906074        24.6555 
 161   0.0000       0.910717        24.7819 
 162   0.0000       0.916395        24.9364 
 163   0.0000       0.935330        25.4516 
 164   0.0000       0.978400        26.6236 
 165   0.0000       0.990726        26.9590 
 166   0.0000       0.997983        27.1565 
 167   0.0000       1.022958        27.8361 
 168   0.0000       1.031912        28.0798 
 169   0.0000       1.046350        28.4726 
 170   0.0000       1.065101        28.9829 
 171   0.0000       1.084722        29.5168 
 172   0.0000       1.107156        30.1273 
 173   0.0000       1.124103        30.5884 
 174   0.0000       1.135776        30.9060 
 175   0.0000       1.145237        31.1635 
 176   0.0000       1.168607        31.7994 
 177   0.0000       1.175360        31.9832 
 178   0.0000       1.189967        32.3807 
 179   0.0000       1.202469        32.7209 
 180   0.0000       1.220012        33.1982 
 181   0.0000       1.224575        33.3224 
 182   0.0000       1.236306        33.6416 
 183   0.0000       1.255021        34.1509 
 184   0.0000       1.273650        34.6578 
 185   0.0000       1.293008        35.1845 
 186   0.0000       1.301146        35.4060 
 187   0.0000       1.316090        35.8126 
 188   0.0000       1.324224        36.0340 
 189   0.0000       1.343229        36.5511 
 190   0.0000       1.365012        37.1439 
 191   0.0000       1.370893        37.3039 
 192   0.0000       1.410807        38.3900 
 193   0.0000       1.416212        38.5371 
 194   0.0000       1.440276        39.1919 
 195   0.0000       1.448894        39.4264 
 196   0.0000       1.465777        39.8858 
 197   0.0000       1.474032        40.1104 
 198   0.0000       1.480578        40.2886 
 199   0.0000       1.490885        40.5690 
 200   0.0000       1.503023        40.8993 
 201   0.0000       1.514839        41.2209 
 202   0.0000       1.549023        42.1510 
 203   0.0000       1.552815        42.2543 
 204   0.0000       1.566249        42.6198 
 205   0.0000       1.568235        42.6738 
 206   0.0000       1.585889        43.1542 
 207   0.0000       1.615905        43.9710 
 208   0.0000       1.639173        44.6042 
 209   0.0000       1.651878        44.9499 
 210   0.0000       1.658037        45.1175 
 211   0.0000       1.660261        45.1780 
 212   0.0000       1.678860        45.6841 
 213   0.0000       1.684734        45.8440 
 214   0.0000       1.696818        46.1728 
 215   0.0000       1.705277        46.4029 
 216   0.0000       1.721303        46.8390 
 217   0.0000       1.755004        47.7561 
 218   0.0000       1.760777        47.9132 
 219   0.0000       1.767839        48.1053 
 220   0.0000       1.796790        48.8931 
 221   0.0000       1.806201        49.1492 
 222   0.0000       1.807478        49.1840 
 223   0.0000       1.811288        49.2877 
 224   0.0000       1.846187        50.2373 
 225   0.0000       1.857354        50.5412 
 226   0.0000       1.858229        50.5650 
 227   0.0000       1.875236        51.0278 
 228   0.0000       1.907830        51.9147 
 229   0.0000       1.913322        52.0641 
 230   0.0000       1.931035        52.5461 
 231   0.0000       1.937017        52.7089 
 232   0.0000       1.959825        53.3296 
 233   0.0000       1.964926        53.4684 
 234   0.0000       1.997660        54.3591 
 235   0.0000       2.012728        54.7691 
 236   0.0000       2.020478        54.9800 
 237   0.0000       2.021442        55.0062 
 238   0.0000       2.057842        55.9967 
 239   0.0000       2.067958        56.2720 
 240   0.0000       2.076404        56.5018 
 241   0.0000       2.083376        56.6915 
 242   0.0000       2.093954        56.9794 
 243   0.0000       2.099420        57.1281 
 244   0.0000       2.105775        57.3010 
 245   0.0000       2.142932        58.3122 
 246   0.0000       2.163707        58.8775 
 247   0.0000       2.181020        59.3486 
 248   0.0000       2.204434        59.9857 
 249   0.0000       2.209019        60.1105 
 250   0.0000       2.218432        60.3666 
 251   0.0000       2.226370        60.5826 
 252   0.0000       2.241994        61.0078 
 253   0.0000       2.289801        62.3087 
 254   0.0000       2.313271        62.9473 
 255   0.0000       2.338170        63.6248 
 256   0.0000       2.352057        64.0027 
 257   0.0000       2.359269        64.1990 
 258   0.0000       2.377500        64.6951 
 259   0.0000       2.391614        65.0791 
 260   0.0000       2.395527        65.1856 
 261   0.0000       2.411984        65.6334 
 262   0.0000       2.447754        66.6068 
 263   0.0000       2.470428        67.2238 
 264   0.0000       2.478405        67.4408 
 265   0.0000       2.497674        67.9652 
 266   0.0000       2.498614        67.9907 
 267   0.0000       2.510202        68.3061 
 268   0.0000       2.522656        68.6450 
[...]
      py      :     0.034789
  9 H s       :     0.675358  s :     0.675358
      pz      :     0.021068  p :     0.099847
      px      :     0.020992
      py      :     0.057786
 10 C s       :     2.765023  s :     2.765023
      pz      :     0.945984  p :     2.966742
      px      :     1.024570
      py      :     0.996187
      dz2     :     0.045366  d :     0.398075
      dxz     :     0.065438
      dyz     :     0.045181
      dx2y2   :     0.104942
      dxy     :     0.137148
      f0      :     0.003142  f :     0.041979
      f+1     :     0.004344
      f-1     :     0.003713
      f+2     :     0.006589
      f-2     :     0.004889
      f+3     :     0.007388
      f-3     :     0.011915
 11 C s       :     2.783027  s :     2.783027
      pz      :     0.976102  p :     3.002222
      px      :     1.039922
      py      :     0.986197
      dz2     :     0.035791  d :     0.362823
      dxz     :     0.061202
      dyz     :     0.037669
      dx2y2   :     0.102946
      dxy     :     0.125215
      f0      :     0.003265  f :     0.038810
      f+1     :     0.004833
      f-1     :     0.002756
      f+2     :     0.004820
      f-2     :     0.005178
      f+3     :     0.007000
      f-3     :     0.010957
 12 C s       :     2.737647  s :     2.737647
      pz      :     0.860078  p :     2.818541
      px      :     0.930982
      py      :     1.027481
      dz2     :     0.082256  d :     0.760889
      dxz     :     0.148944
      dyz     :     0.085858
      dx2y2   :     0.187106
      dxy     :     0.256725
      f0      :     0.006461  f :     0.098388
      f+1     :     0.012237
      f-1     :     0.004571
      f+2     :     0.015758
      f-2     :     0.012099
      f+3     :     0.015321
      f-3     :     0.031941
 13 O s       :     3.440411  s :     3.440411
      pz      :     1.495641  p :     4.657907
      px      :     1.465439
      py      :     1.696827
      dz2     :     0.007530  d :     0.060048
      dxz     :     0.017274
      dyz     :     0.002220
      dx2y2   :     0.017402
      dxy     :     0.015622
      f0      :     0.000398  f :     0.004826
      f+1     :     0.000864
      f-1     :     0.000018
      f+2     :     0.000998
      f-2     :     0.000408
      f+3     :     0.001042
      f-3     :     0.001098
 14 H s       :     0.651434  s :     0.651434
      pz      :     0.043854  p :     0.148805
      px      :     0.053043
      py      :     0.051908
 15 H s       :     0.789521  s :     0.789521
      pz      :     0.015733  p :     0.059389
      px      :     0.015138
      py      :     0.028518
 16 H s       :     0.781200  s :     0.781200
      pz      :     0.029977  p :     0.067717
      px      :     0.012982
      py      :     0.024758
 17 H s       :     0.784877  s :     0.784877
      pz      :     0.014271  p :     0.058907
      px      :     0.012571
      py      :     0.032064
 18 H s       :     0.787466  s :     0.787466
      pz      :     0.028462  p :     0.061065
      px      :     0.009508
      py      :     0.023095
 19 H s       :     0.785801  s :     0.785801
      pz      :     0.015095  p :     0.061360
      px      :     0.010815
      py      :     0.035451
 20 H s       :     0.793364  s :     0.793364
      pz      :     0.014447  p :     0.058900
      px      :     0.017127
      py      :     0.027326
 21 H s       :     0.804480  s :     0.804480
      pz      :     0.015931  p :     0.059467
      px      :     0.015139
      py      :     0.028397
 22 Cus       :     6.989253  s :     6.989253
      pz      :     4.014754  p :    12.043541
      px      :     4.010931
      py      :     4.017856
      dz2     :     2.002862  d :    10.032172
      dxz     :     2.004858
      dyz     :     2.017411
      dx2y2   :     2.002588
      dxy     :     2.004452
      f0      :     0.000000  f :     0.000004
      f+1     :     0.000000
      f-1     :     0.000000
      f+2     :     0.000000
      f-2     :     0.000002
      f+3     :     0.000000
      f-3     :     0.000000

SPIN
  0 O s       :     0.000052  s :     0.000052
      pz      :     0.002571  p :     0.003377
      px      :     0.000845
      py      :    -0.000039
      dz2     :     0.000009  d :     0.000231
      dxz     :     0.000033
      dyz     :     0.000132
      dx2y2   :     0.000019
      dxy     :     0.000038
      f0      :     0.000004  f :     0.000015
      f+1     :     0.000001
      f-1     :     0.000000
      f+2     :     0.000003
      f-2     :     0.000004
      f+3     :     0.000000
      f-3     :     0.000003
  1 C s       :     0.000219  s :     0.000219
      pz      :     0.006648  p :     0.008311
      px      :     0.001603
      py      :     0.000060
      dz2     :     0.000063  d :     0.000862
      dxz     :    -0.000173
      dyz     :     0.000985
      dx2y2   :    -0.000055
      dxy     :     0.000042
      f0      :    -0.000005  f :     0.000097
      f+1     :    -0.000003
      f-1     :     0.000016
      f+2     :     0.000002
      f-2     :     0.000047
      f+3     :     0.000019
      f-3     :     0.000022
  2 C s       :     0.000056  s :     0.000056
      pz      :    -0.001527  p :    -0.001143
      px      :     0.000394
      py      :    -0.000010
      dz2     :     0.000192  d :     0.001746
      dxz     :     0.001390
      dyz     :     0.000252
      dx2y2   :    -0.000095
      dxy     :     0.000008
      f0      :     0.000014  f :     0.000254
      f+1     :     0.000061
      f-1     :     0.000012
      f+2     :     0.000090
      f-2     :     0.000056
      f+3     :     0.000025
      f-3     :    -0.000005
  3 C s       :     0.000238  s :     0.000238
      pz      :     0.009243  p :     0.009279
      px      :    -0.000165
      py      :     0.000201
      dz2     :     0.000245  d :     0.003167
      dxz     :     0.001430
      dyz     :    -0.000119
      dx2y2   :     0.000154
      dxy     :     0.001457
      f0      :    -0.000018  f :     0.000360
      f+1     :     0.000120
      f-1     :    -0.000009
      f+2     :     0.000193
      f-2     :     0.000013
      f+3     :     0.000007
      f-3     :     0.000055
  4 C s       :     0.004649  s :     0.004649
      pz      :     0.024273  p :     0.036746
      px      :     0.001513
      py      :     0.010960
      dz2     :     0.000891  d :     0.000348
      dxz     :    -0.000000
      dyz     :    -0.000355
      dx2y2   :    -0.000163
      dxy     :    -0.000024
      f0      :    -0.000024  f :     0.000145
      f+1     :     0.000110
      f-1     :    -0.000008
      f+2     :    -0.000023
      f-2     :    -0.000016
      f+3     :     0.000056
      f-3     :     0.000051
  5 C s       :    -0.000225  s :    -0.000225
      pz      :     0.002564  p :     0.003201
      px      :     0.000299
      py      :     0.000338
      dz2     :     0.002589  d :     0.003310
      dxz     :     0.000068
      dyz     :     0.000242
      dx2y2   :     0.000368
      dxy     :     0.000043
      f0      :     0.000027  f :     0.000394
      f+1     :     0.000021
      f-1     :     0.000037
      f+2     :     0.000120
      f-2     :     0.000021
      f+3     :     0.000015
      f-3     :     0.000153
  6 N s       :     0.004115  s :     0.004115
      pz      :     0.007558  p :     0.011061
      px      :     0.000328
      py      :     0.003174
      dz2     :    -0.000020  d :     0.000372
      dxz     :     0.000066
      dyz     :     0.000332
      dx2y2   :    -0.000011
      dxy     :     0.000006
      f0      :     0.000000  f :     0.000089
      f+1     :     0.000010
      f-1     :     0.000042
      f+2     :     0.000027
      f-2     :     0.000004
      f+3     :     0.000003
      f-3     :     0.000001
  7 H s       :     0.000281  s :     0.000281
      pz      :     0.000426  p :     0.000523
      px      :     0.000047
      py      :     0.000050
  8 H s       :     0.022331  s :     0.022331
      pz      :     0.004757  p :     0.007436
      px      :     0.000251
      py      :     0.002427
  9 H s       :     0.000303  s :     0.000303
      pz      :     0.000206  p :     0.000656
      px      :     0.000008
      py      :     0.000442
 10 C s       :     0.000086  s :     0.000086
      pz      :     0.004141  p :     0.005442
      px      :     0.001073
      py      :     0.000228
      dz2     :     0.000958  d :     0.002574
      dxz     :     0.001409
      dyz     :     0.000162
      dx2y2   :     0.000044
      dxy     :     0.000001
      f0      :    -0.000003  f :     0.000253
      f+1     :     0.000070
      f-1     :     0.000014
      f+2     :     0.000130
      f-2     :     0.000023
      f+3     :     0.000022
      f-3     :    -0.000004
 11 C s       :     0.000250  s :     0.000250
      pz      :     0.010924  p :     0.013118
      px      :     0.002042
      py      :     0.000153
      dz2     :     0.000367  d :     0.001377
      dxz     :     0.000696
      dyz     :     0.000107
      dx2y2   :     0.000137
      dxy     :     0.000070
      f0      :    -0.000010  f :     0.000115
      f+1     :     0.000033
      f-1     :    -0.000006
      f+2     :     0.000068
      f-2     :     0.000020
      f+3     :     0.000014
      f-3     :    -0.000004
 12 C s       :    -0.000020  s :    -0.000020
      pz      :     0.006152  p :     0.006388
      px      :     0.000350
      py      :    -0.000114
      dz2     :     0.001744  d :     0.005726
      dxz     :     0.002944
      dyz     :     0.000236
      dx2y2   :     0.000730
      dxy     :     0.000071
      f0      :    -0.000001  f :     0.000771
      f+1     :     0.000283
      f-1     :    -0.000000
      f+2     :     0.000323
      f-2     :     0.000020
      f+3     :     0.000115
      f-3     :     0.000031
 13 O s       :     0.000382  s :     0.000382
      pz      :     0.027871  p :     0.032130
      px      :     0.003493
      py      :     0.000766
      dz2     :     0.000127  d :     0.000367
      dxz     :     0.000225
      dyz     :     0.000000
      dx2y2   :     0.000021
      dxy     :    -0.000007
      f0      :    -0.000002  f :     0.000018
      f+1     :     0.000016
      f-1     :     0.000000
      f+2     :     0.000002
      f-2     :     0.000000
      f+3     :     0.000002
      f-3     :    -0.000001
 14 H s       :    -0.000072  s :    -0.000072
      pz      :     0.000095  p :     0.000121
      px      :     0.000022
      py      :     0.000004
 15 H s       :     0.000032  s :     0.000032
      pz      :    -0.000022  p :    -0.000034
      px      :    -0.000012
      py      :    -0.000000
 16 H s       :     0.014426  s :     0.014426
      pz      :     0.004058  p :     0.008714
      px      :     0.000689
      py      :     0.003967
 17 H s       :    -0.000705  s :    -0.000705
      pz      :     0.000557  p :     0.001115
      px      :     0.000009
      py      :     0.000549
 18 H s       :     0.001667  s :     0.001667
      pz      :     0.000019  p :     0.000054
      px      :    -0.000012
      py      :     0.000048
 19 H s       :     0.000121  s :     0.000121
      pz      :     0.000028  p :     0.000063
      px      :    -0.000010
      py      :     0.000045
 20 H s       :     0.000135  s :     0.000135
      pz      :     0.000201  p :     0.000235
      px      :    -0.000012
      py      :     0.000045
 21 H s       :    -0.000358  s :    -0.000358
      pz      :     0.000251  p :     0.000327
      px      :     0.000044
      py      :     0.000031
 22 Cus       :     0.767363  s :     0.767363
      pz      :     0.001562  p :     0.007507
      px      :     0.002940
      py      :     0.003005
      dz2     :     0.000211  d :     0.007458
      dxz     :     0.002516
      dyz     :     0.002463
      dx2y2   :     0.000816
      dxy     :     0.001452
      f0      :     0.000000  f :     0.000000
      f+1     :     0.000000
      f-1     :     0.000000
      f+2     :     0.000000
      f-2     :     0.000000
      f+3     :     0.000000
      f-3     :    -0.000000


                      *****************************
                      * MAYER POPULATION ANALYSIS *
                      *****************************

  NA   - Mulliken gross atomic population
  ZA   - Total nuclear charge
  QA   - Mulliken gross atomic charge
  VA   - Mayer's total valence
  BVA  - Mayer's bonded valence
  FA   - Mayer's free valence

  ATOM       NA         ZA         QA         VA         BVA        FA
  0 O      8.4187     8.0000    -0.4187     2.0850     2.0850     0.0000
  1 C      5.8362     6.0000     0.1638     3.5352     3.5351     0.0001
  2 C      6.3553     6.0000    -0.3553     3.8718     3.8718     0.0000
  3 C      5.8549     6.0000     0.1451     3.6841     3.6839     0.0003
  4 C      6.2421     6.0000    -0.2421     3.9340     3.9317     0.0023
  5 C      6.1760     6.0000    -0.1760     3.8480     3.8479     0.0001
  6 N      7.2118     7.0000    -0.2118     3.5220     3.5217     0.0003
  7 H      0.6697     1.0000     0.3303     0.8923     0.8923     0.0000
  8 H      0.7281     1.0000     0.2719     0.9708     0.9700     0.0008
  9 H      0.6749     1.0000     0.3251     0.8981     0.8980     0.0000
 10 C      6.2878     6.0000    -0.2878     3.8612     3.8611     0.0001
 11 C      6.2480     6.0000    -0.2480     3.7293     3.7290     0.0003
 12 C      5.9324     6.0000     0.0676     4.3453     4.3452     0.0001
 13 O      8.5810     8.0000    -0.5810     1.9583     1.9571     0.0012
 14 H      0.6575     1.0000     0.3425     0.8966     0.8966     0.0000
 15 H      0.8760     1.0000     0.1240     0.9797     0.9797     0.0000
 16 H      0.8190     1.0000     0.1810     0.9119     0.9107     0.0012
 17 H      0.8616     1.0000     0.1384     0.9724     0.9724     0.0000
 18 H      0.8357     1.0000     0.1643     0.9710     0.9710     0.0000
 19 H      0.8322     1.0000     0.1678     0.9706     0.9706     0.0000
 20 H      0.8867     1.0000     0.1133     0.9746     0.9746     0.0000
 21 H      0.9228     1.0000     0.0772     1.0023     1.0023     0.0000
 22 Cu    29.0916    29.0000    -0.0916     1.1188     0.3704     0.7484

  Mayer bond orders larger than 0.100000
B(  0-O ,  1-C ) :   1.1261 B(  0-O , 14-H ) :   0.8648 B(  1-C ,  2-C ) :   1.3860 
B(  1-C , 12-C ) :   1.0407 B(  2-C ,  3-C ) :   1.2803 B(  2-C , 15-H ) :   0.9510 
B(  3-C ,  4-C ) :   0.9422 B(  3-C , 10-C ) :   1.3052 B(  4-C ,  5-C ) :   0.9998 
B(  4-C , 16-H ) :   0.8945 B(  4-C , 17-H ) :   0.9401 B(  5-C ,  6-N ) :   0.9230 
B(  5-C , 18-H ) :   0.9436 B(  5-C , 19-H ) :   0.9468 B(  6-N ,  7-H ) :   0.8699 
B(  6-N ,  8-H ) :   0.8359 B(  6-N ,  9-H ) :   0.8711 B(  8-H , 22-Cu) :   0.1127 
B( 10-C , 11-C ) :   1.3973 B( 10-C , 20-H ) :   0.9712 B( 11-C , 12-C ) :   1.2763 
B( 11-C , 21-H ) :   0.9855 B( 12-C , 13-O ) :   1.8725 

-------
TIMINGS
-------

Total SCF time: 0 days 0 hours 0 min 33 sec 

Total time                  ....      33.632 sec
Sum of individual times     ....      31.775 sec  ( 94.5%)

Fock matrix formation       ....      23.297 sec  ( 69.3%)
  Split-RI-J                ....       4.945 sec  ( 21.2% of F)
  XC integration            ....       8.752 sec  ( 37.6% of F)
    Basis function eval.    ....       1.125 sec  ( 12.9% of XC)
    Density eval.           ....       3.245 sec  ( 37.1% of XC)
    XC-Functional eval.     ....       0.117 sec  (  1.3% of XC)
    XC-Potential eval.      ....       1.766 sec  ( 20.2% of XC)
Diagonalization             ....       3.716 sec  ( 11.0%)
Density matrix formation    ....       0.203 sec  (  0.6%)
Population analysis         ....       0.363 sec  (  1.1%)
Initial guess               ....       0.297 sec  (  0.9%)
Orbital Transformation      ....       0.000 sec  (  0.0%)
Orbital Orthonormalization  ....       0.255 sec  (  0.8%)
DIIS solution               ....       2.757 sec  (  8.2%)
Grid generation             ....       1.142 sec  (  3.4%)

Maximum memory used throughout the entire SCF-calculation: 66.5 MB


-------------------------------------------------------------------------------
                          DFT DISPERSION CORRECTION                            
                                                                               
                              DFTD3 V3.1  Rev 1                                
                          USING Becke-Johnson damping                          
-------------------------------------------------------------------------------
The PBE functional is recognized
Active option DFTDOPT                   ...         4   

molecular C6(AA) [au] = 7235.109308 


            DFT-D V3
 parameters
 s6 scaling factor         :     1.0000 
 a1 scaling factor         :     0.4289 
 s8 scaling factor         :     0.7875 
 a2 scaling factor         :     4.4407 
 ad hoc parameters k1-k3   :    16.0000     1.3333    -4.0000 

 Edisp/kcal,au: -16.531372806748  -0.026344416661 
 E6   /kcal   : -11.524573444 
 E8   /kcal   :  -5.006799363 
 % E8         :  30.286652060 

-------------------------   ----------------
Dispersion correction           -0.026344417
-------------------------   ----------------


-------------------------   --------------------
FINAL SINGLE POINT ENERGY     -2156.523935385656
-------------------------   --------------------

                                *** OPTIMIZATION RUN DONE ***

                            ***************************************
                            *     ORCA property calculations      *
                            ***************************************

                                    ---------------------
                                    Active property flags
                                    ---------------------
   (+) Dipole Moment


------------------------------------------------------------------------------
                       ORCA ELECTRIC PROPERTIES CALCULATION
------------------------------------------------------------------------------

Dipole Moment Calculation                       ... on
Quadrupole Moment Calculation                   ... off
Polarizability Calculation                      ... off
GBWName                                         ... 3_M0003.gbw
Electron density                                ... 3_M0003.scfp
The origin for moment calculation is the CENTER OF MASS  = (-1.001903,  1.291849 -1.677919)

-------------
DIPOLE MOMENT
-------------
                                X             Y             Z
Electronic contribution:    -12.70855      12.20705     -19.48865
Nuclear contribution   :      0.89728     -12.39158      17.45697
                        -----------------------------------------
Total Dipole Moment    :    -11.81127      -0.18453      -2.03169
                        -----------------------------------------
Magnitude (a.u.)       :     11.98615
Magnitude (Debye)      :     30.46638



--------------------
Rotational spectrum 
--------------------
 
Rotational constants in cm-1:     0.042952     0.008520     0.007894 
Rotational constants in MHz :  1287.674860   255.415402   236.654757 

 Dipole components along the rotational axes: 
x,y,z [a.u.] :   -10.584326     5.618875    -0.261143 
x,y,z [Debye]:   -26.903219    14.282045    -0.663772 

 
No protocol specified

Timings for individual modules:

Sum of individual times         ...     2206.167 sec (=  36.769 min)
GTO integral calculation        ...       75.420 sec (=   1.257 min)   3.4 %
SCF iterations                  ...     1750.272 sec (=  29.171 min)  79.3 %
SCF Gradient evaluation         ...      378.300 sec (=   6.305 min)  17.1 %
Geometry relaxation             ...        2.175 sec (=   0.036 min)   0.1 %
                             ****ORCA TERMINATED NORMALLY****
TOTAL RUN TIME: 0 days 0 hours 37 minutes 24 seconds 391 msec
