
                                 *****************
                                 * O   R   C   A *
                                 *****************

                                            #,                                       
                                            ###                                      
                                            ####                                     
                                            #####                                    
                                            ######                                   
                                           ########,                                 
                                     ,,################,,,,,                         
                               ,,#################################,,                 
                          ,,##########################################,,             
                       ,#########################################, ''#####,          
                    ,#############################################,,   '####,        
                  ,##################################################,,,,####,       
                ,###########''''           ''''###############################       
              ,#####''   ,,,,##########,,,,          '''####'''          '####       
            ,##' ,,,,###########################,,,                        '##       
           ' ,,###''''                  '''############,,,                           
         ,,##''                                '''############,,,,        ,,,,,,###''
      ,#''                                            '''#######################'''  
     '                                                          ''''####''''         
             ,#######,   #######,   ,#######,      ##                                
            ,#'     '#,  ##    ##  ,#'     '#,    #''#        ######   ,####,        
            ##       ##  ##   ,#'  ##            #'  '#       #        #'  '#        
            ##       ##  #######   ##           ,######,      #####,   #    #        
            '#,     ,#'  ##    ##  '#,     ,#' ,#      #,         ##   #,  ,#        
             '#######'   ##     ##  '#######'  #'      '#     #####' # '####'        



                  #######################################################
                  #                        -***-                        #
                  #          Department of theory and spectroscopy      #
                  #    Directorship and core code : Frank Neese         #
                  #        Max Planck Institute fuer Kohlenforschung    #
                  #                Kaiser Wilhelm Platz 1               #
                  #                 D-45470 Muelheim/Ruhr               #
                  #                      Germany                        #
                  #                                                     #
                  #                  All rights reserved                #
                  #                        -***-                        #
                  #######################################################


                         Program Version 5.0.2 -  RELEASE  -


 With contributions from (in alphabetic order):
   Daniel Aravena         : Magnetic Suceptibility
   Michael Atanasov       : Ab Initio Ligand Field Theory (pilot matlab implementation)
   Alexander A. Auer      : GIAO ZORA, VPT2 properties, NMR spectrum
   Ute Becker             : Parallelization
   Giovanni Bistoni       : ED, misc. LED, open-shell LED, HFLD
   Martin Brehm           : Molecular dynamics
   Dmytro Bykov           : SCF Hessian
   Vijay G. Chilkuri      : MRCI spin determinant printing, contributions to CSF-ICE
   Dipayan Datta          : RHF DLPNO-CCSD density
   Achintya Kumar Dutta   : EOM-CC, STEOM-CC
   Dmitry Ganyushin       : Spin-Orbit,Spin-Spin,Magnetic field MRCI
   Miquel Garcia          : C-PCM and meta-GGA Hessian, CC/C-PCM, Gaussian charge scheme
   Yang Guo               : DLPNO-NEVPT2, F12-NEVPT2, CIM, IAO-localization
   Andreas Hansen         : Spin unrestricted coupled pair/coupled cluster methods
   Benjamin Helmich-Paris : MC-RPA, TRAH-SCF, COSX integrals
   Lee Huntington         : MR-EOM, pCC
   Robert Izsak           : Overlap fitted RIJCOSX, COSX-SCS-MP3, EOM
   Marcus Kettner         : VPT2
   Christian Kollmar      : KDIIS, OOCD, Brueckner-CCSD(T), CCSD density, CASPT2, CASPT2-K
   Simone Kossmann        : Meta GGA functionals, TD-DFT gradient, OOMP2, MP2 Hessian
   Martin Krupicka        : Initial AUTO-CI
   Lucas Lang             : DCDCAS
   Marvin Lechner         : AUTO-CI (C++ implementation), FIC-MRCC
   Dagmar Lenk            : GEPOL surface, SMD
   Dimitrios Liakos       : Extrapolation schemes; Compound Job, initial MDCI parallelization
   Dimitrios Manganas     : Further ROCIS development; embedding schemes
   Dimitrios Pantazis     : SARC Basis sets
   Anastasios Papadopoulos: AUTO-CI, single reference methods and gradients
   Taras Petrenko         : DFT Hessian,TD-DFT gradient, ASA, ECA, R-Raman, ABS, FL, XAS/XES, NRVS
   Peter Pinski           : DLPNO-MP2, DLPNO-MP2 Gradient
   Christoph Reimann      : Effective Core Potentials
   Marius Retegan         : Local ZFS, SOC
   Christoph Riplinger    : Optimizer, TS searches, QM/MM, DLPNO-CCSD(T), (RO)-DLPNO pert. Triples
   Tobias Risthaus        : Range-separated hybrids, TD-DFT gradient, RPA, STAB
   Michael Roemelt        : Original ROCIS implementation
   Masaaki Saitow         : Open-shell DLPNO-CCSD energy and density
   Barbara Sandhoefer     : DKH picture change effects
   Avijit Sen             : IP-ROCIS
   Kantharuban Sivalingam : CASSCF convergence, NEVPT2, FIC-MRCI
   Bernardo de Souza      : ESD, SOC TD-DFT
   Georgi Stoychev        : AutoAux, RI-MP2 NMR, DLPNO-MP2 response
   Willem Van den Heuvel  : Paramagnetic NMR
   Boris Wezisla          : Elementary symmetry handling
   Frank Wennmohs         : Technical directorship


 We gratefully acknowledge several colleagues who have allowed us to
 interface, adapt or use parts of their codes:
   Stefan Grimme, W. Hujo, H. Kruse, P. Pracht,  : VdW corrections, initial TS optimization,
                  C. Bannwarth, S. Ehlert          DFT functionals, gCP, sTDA/sTD-DF
   Ed Valeev, F. Pavosevic, A. Kumar             : LibInt (2-el integral package), F12 methods
   Garnet Chan, S. Sharma, J. Yang, R. Olivares  : DMRG
   Ulf Ekstrom                                   : XCFun DFT Library
   Mihaly Kallay                                 : mrcc  (arbitrary order and MRCC methods)
   Jiri Pittner, Ondrej Demel                    : Mk-CCSD
   Frank Weinhold                                : gennbo (NPA and NBO analysis)
   Christopher J. Cramer and Donald G. Truhlar   : smd solvation model
   Lars Goerigk                                  : TD-DFT with DH, B97 family of functionals
   V. Asgeirsson, H. Jonsson                     : NEB implementation
   FAccTs GmbH                                   : IRC, NEB, NEB-TS, DLPNO-Multilevel, CI-OPT
                                                   MM, QMMM, 2- and 3-layer-ONIOM, Crystal-QMMM,
                                                   LR-CPCM, SF, NACMEs, symmetry and pop. for TD-DFT,
                                                   nearIR, NL-DFT gradient (VV10), updates on ESD,
                                                   ML-optimized integration grids
   S Lehtola, MJT Oliveira, MAL Marques          : LibXC Library
   Liviu Ungur et al                             : ANISO software


 Your calculation uses the libint2 library for the computation of 2-el integrals
 For citations please refer to: http://libint.valeyev.net

 Your ORCA version has been built with support for libXC version: 5.1.0
 For citations please refer to: https://tddft.org/programs/libxc/

 This ORCA versions uses:
   CBLAS   interface :  Fast vector & matrix operations
   LAPACKE interface :  Fast linear algebra routines
   SCALAPACK package :  Parallel linear algebra routines
   Shared memory     :  Shared parallel matrices
   BLAS/LAPACK       :  OpenBLAS 0.3.15  USE64BITINT DYNAMIC_ARCH NO_AFFINITY Haswell SINGLE_THREADED
        Core in use  :  Haswell
   Copyright (c) 2011-2014, The OpenBLAS Project


Your calculation utilizes the atom-pairwise dispersion correction
with the Becke-Johnson damping scheme (D3BJ)
Cite in your paper:
S.Grimme, S.Ehrlich, L.Goerigk, J Comput Chem, (2011), 32, 1456–1465 
S.Grimme, J.Antony, S.Ehrlich and H.Krieg, J.Chem.Phys., 132, (2010), 154104 
   

================================================================================

----- Orbital basis set information -----
Your calculation utilizes the basis: def2-TZVP
   F. Weigend and R. Ahlrichs, Phys. Chem. Chem. Phys. 7, 3297 (2005).

----- AuxJ basis set information -----
Your calculation utilizes the auxiliary basis: def2/J
   F. Weigend, Phys. Chem. Chem. Phys. 8, 1057 (2006).

================================================================================
                                        WARNINGS
                       Please study these warnings very carefully!
================================================================================


WARNING: your system is open-shell and RHF/RKS was chosen
  ===> : WILL SWITCH to UHF/UKS


INFO   : the flag for use of the SHARK integral package has been found!

Your calculation utilizes the atom-pairwise dispersion correction
with the Becke-Johnson damping scheme (D3BJ)
Cite in your paper:
S.Grimme, S.Ehrlich, L.Goerigk, J Comput Chem, (2011), 32, 1456–1465 
S.Grimme, J.Antony, S.Ehrlich and H.Krieg, J.Chem.Phys., 132, (2010), 154104 
   

================================================================================

----- Orbital basis set information -----
Your calculation utilizes the basis: def2-TZVP
   F. Weigend and R. Ahlrichs, Phys. Chem. Chem. Phys. 7, 3297 (2005).

----- AuxJ basis set information -----
Your calculation utilizes the auxiliary basis: def2/J
   F. Weigend, Phys. Chem. Chem. Phys. 8, 1057 (2006).

================================================================================
                                        WARNINGS
                       Please study these warnings very carefully!
================================================================================


WARNING: MOInp is set but Guess=PModel. MOInp will be ignored!
         To read the initial guess from a file you must also specify
         'MORead' in the simple input or 'Guess MORead' in the %scf block


INFO   : the flag for use of the SHARK integral package has been found!

Your calculation utilizes the atom-pairwise dispersion correction
with the Becke-Johnson damping scheme (D3BJ)
Cite in your paper:
S.Grimme, S.Ehrlich, L.Goerigk, J Comput Chem, (2011), 32, 1456–1465 
S.Grimme, J.Antony, S.Ehrlich and H.Krieg, J.Chem.Phys., 132, (2010), 154104 
   

================================================================================

----- Orbital basis set information -----
Your calculation utilizes the basis: def2-TZVP
   F. Weigend and R. Ahlrichs, Phys. Chem. Chem. Phys. 7, 3297 (2005).

----- AuxJ basis set information -----
Your calculation utilizes the auxiliary basis: def2/J
   F. Weigend, Phys. Chem. Chem. Phys. 8, 1057 (2006).

================================================================================
                                        WARNINGS
                       Please study these warnings very carefully!
================================================================================


WARNING: MOInp is set but Guess=PModel. MOInp will be ignored!
         To read the initial guess from a file you must also specify
         'MORead' in the simple input or 'Guess MORead' in the %scf block


INFO   : the flag for use of the SHARK integral package has been found!

Your calculation utilizes the atom-pairwise dispersion correction
with the Becke-Johnson damping scheme (D3BJ)
Cite in your paper:
S.Grimme, S.Ehrlich, L.Goerigk, J Comput Chem, (2011), 32, 1456–1465 
S.Grimme, J.Antony, S.Ehrlich and H.Krieg, J.Chem.Phys., 132, (2010), 154104 
   

================================================================================

----- Orbital basis set information -----
Your calculation utilizes the basis: def2-TZVP
   F. Weigend and R. Ahlrichs, Phys. Chem. Chem. Phys. 7, 3297 (2005).

----- AuxJ basis set information -----
Your calculation utilizes the auxiliary basis: def2/J
   F. Weigend, Phys. Chem. Chem. Phys. 8, 1057 (2006).

================================================================================
                                        WARNINGS
                       Please study these warnings very carefully!
================================================================================


WARNING: MOInp is set but Guess=PModel. MOInp will be ignored!
         To read the initial guess from a file you must also specify
         'MORead' in the simple input or 'Guess MORead' in the %scf block


INFO   : the flag for use of the SHARK integral package has been found!

Your calculation utilizes the atom-pairwise dispersion correction
with the Becke-Johnson damping scheme (D3BJ)
Cite in your paper:
S.Grimme, S.Ehrlich, L.Goerigk, J Comput Chem, (2011), 32, 1456–1465 
S.Grimme, J.Antony, S.Ehrlich and H.Krieg, J.Chem.Phys., 132, (2010), 154104 
   

================================================================================

----- Orbital basis set information -----
Your calculation utilizes the basis: def2-TZVP
   F. Weigend and R. Ahlrichs, Phys. Chem. Chem. Phys. 7, 3297 (2005).

----- AuxJ basis set information -----
Your calculation utilizes the auxiliary basis: def2/J
   F. Weigend, Phys. Chem. Chem. Phys. 8, 1057 (2006).

================================================================================
                                        WARNINGS
                       Please study these warnings very carefully!
================================================================================


WARNING: MOInp is set but Guess=PModel. MOInp will be ignored!
         To read the initial guess from a file you must also specify
         'MORead' in the simple input or 'Guess MORead' in the %scf block


INFO   : the flag for use of the SHARK integral package has been found!

================================================================================
                                       INPUT FILE
================================================================================
NAME = ex.inp
|  1> ! PBE D3 def2-TZVP opt PModel
|  2> %pal nprocs=16 end
|  3> %geom maxiter=150 end
|  4> %base "1_M0002"
|  5> *xyz 0 2
|  6> 8       -2.031037000     -2.062449000     -0.049321000
|  7> 8       -3.307150000      0.599768000     -0.503427000
|  8> 7        2.925979000      0.077175000     -1.435707000
|  9> 6        2.153620000      0.147371000      0.963706000
| 10> 6        0.699293000      0.250785000      0.602187000
| 11> 6        3.015942000     -0.544013000     -0.105473000
| 12> 6       -0.084508000     -0.900396000      0.442535000
| 13> 6        0.094415000      1.478147000      0.401001000
| 14> 6       -1.458703000     -0.912270000      0.065928000
| 15> 6       -1.251647000      1.527268000      0.034471000
| 16> 6       -2.083157000      0.389278000     -0.155479000
| 17> 1        2.560882000      1.148697000      1.155720000
| 18> 1        2.243050000     -0.399729000      1.910689000
| 19> 1        2.747056000     -1.602590000     -0.194985000
| 20> 1        4.062616000     -0.511037000      0.216663000
| 21> 1        0.376102000     -1.873851000      0.608721000
| 22> 1        0.639013000      2.405862000      0.514153000
| 23> 1       -1.706353000      2.504030000     -0.122715000
| 24> 1        2.786392000      1.080241000     -1.306495000
| 25> 1        2.003359000     -0.207406000     -1.803065000
| 26> Cu2     -4.049033804     -1.352143712     -0.447269780
| 27> *
| 28> 
| 29> $new_job
| 30> %pal nprocs=16 end
| 31> %geom maxiter=150 end
| 32> %base "2_M0001"
| 33> ! PBE D3 def2-TZVP opt PModel NOAUTOSTART
| 34> *xyz 0 2
| 35> 8       -2.053517000     -2.034373000      0.185438000
| 36> 8       -3.299854000      0.572811000     -0.572818000
| 37> 7        2.860805000     -0.833072000     -1.237455000
| 38> 6        2.152337000      0.220042000      0.941851000
| 39> 6        0.697822000      0.310851000      0.581319000
| 40> 6        3.082832000      0.258048000     -0.280072000
| 41> 6       -0.098603000     -0.842826000      0.551432000
| 42> 6        0.112931000      1.512149000      0.227344000
| 43> 6       -1.470338000     -0.883949000      0.171908000
| 44> 6       -1.232297000      1.533165000     -0.145563000
| 45> 6       -2.078509000      0.390321000     -0.200609000
| 46> 1        2.404826000      1.051022000      1.612914000
| 47> 1        2.339631000     -0.693917000      1.520319000
| 48> 1        4.119799000      0.198321000      0.068402000
| 49> 1        2.980176000      1.212058000     -0.809753000
| 50> 1        0.351118000     -1.796109000      0.827513000
| 51> 1        0.673739000      2.437076000      0.225255000
| 52> 1       -1.673913000      2.489310000     -0.421814000
| 53> 1        1.923336000     -0.670522000     -1.640807000
| 54> 1        2.685580000     -1.690041000     -0.706467000
| 55> Cu2     -3.976296727     -1.290616666     -0.364036949
| 56> *
| 57> 
| 58> $new_job
| 59> %pal nprocs=16 end
| 60> %geom maxiter=150 end
| 61> %base "3_M0003"
| 62> ! PBE D3 def2-TZVP opt PModel NOAUTOSTART
| 63> *xyz 0 2
| 64> 8        2.114611000     -2.026864000      0.172957000
| 65> 8        3.292629000      0.696394000      0.521424000
| 66> 7       -3.095376000      0.385734000      1.278702000
| 67> 6       -2.126657000     -0.018000000     -1.001073000
| 68> 6       -0.676513000      0.160651000     -0.644025000
| 69> 6       -2.962669000     -0.567884000      0.165257000
| 70> 6        0.143654000     -0.954433000     -0.416033000
| 71> 6       -0.118767000      1.415902000     -0.489614000
| 72> 6        1.508733000     -0.902964000     -0.011849000
| 73> 6        1.218352000      1.527451000     -0.102381000
| 74> 6        2.084209000      0.428309000      0.158469000
| 75> 1       -2.554110000      0.929990000     -1.351901000
| 76> 1       -2.192610000     -0.710250000     -1.850145000
| 77> 1       -2.524436000     -1.498260000      0.544364000
| 78> 1       -3.968741000     -0.808396000     -0.194728000
| 79> 1       -0.282247000     -1.949428000     -0.542024000
| 80> 1       -0.697965000      2.315911000     -0.648574000
| 81> 1        1.635879000      2.525772000      0.018248000
| 82> 1       -2.148160000      0.757196000      1.442609000
| 83> 1       -3.279933000     -0.153105000      2.123681000
| 84> Cu2      4.061927488     -1.093333637      0.698430045
| 85> *
| 86> 
| 87> $new_job
| 88> %pal nprocs=16 end
| 89> %geom maxiter=150 end
| 90> %base "4_M0006"
| 91> ! PBE D3 def2-TZVP opt PModel NOAUTOSTART
| 92> *xyz 0 2
| 93> 8       -2.005938000     -2.061962000      0.225043000
| 94> 8       -3.326877000      0.482115000     -0.614452000
| 95> 7        3.035492000     -1.020148000     -0.980444000
| 96> 6        2.132501000      0.350235000      0.923363000
| 97> 6        0.669325000      0.377497000      0.576988000
| 98> 6        3.024104000      0.295567000     -0.327293000
| 99> 6       -0.091260000     -0.799941000      0.579212000
|100> 6        0.045428000      1.550263000      0.190850000
|101> 6       -1.458698000     -0.894462000      0.188445000
|102> 6       -1.297297000      1.519725000     -0.189749000
|103> 6       -2.104671000      0.349258000     -0.223967000
|104> 1        2.373400000      1.255716000      1.495247000
|105> 1        2.354637000     -0.490875000      1.592252000
|106> 1        4.055070000      0.532204000     -0.043029000
|107> 1        2.706982000      1.054219000     -1.052586000
|108> 1        0.387655000     -1.729530000      0.886964000
|109> 1        0.576366000      2.492356000      0.166125000
|110> 1       -1.767071000      2.454022000     -0.492627000
|111> 1        3.130695000     -0.876369000     -1.984446000
|112> 1        2.079749000     -1.400785000     -0.896615000
|113> Cu2     -3.516648349     -1.429562792     -0.375981286
|114> *
|115> 
|116> $new_job
|117> %pal nprocs=16 end
|118> %geom maxiter=150 end
|119> %base "5_M0005"
|120> ! PBE D3 def2-TZVP opt PModel NOAUTOSTART
|121> *xyz 0 2
|122> 8        2.289029000     -2.042674000      0.054462000
|123> 8        3.516138000      0.665485000      0.348449000
|124> 7       -4.279682000     -0.192325000      0.379319000
|125> 6       -2.027849000      0.017064000     -0.649438000
|126> 6       -0.558856000      0.176640000     -0.393879000
|127> 6       -2.838915000     -0.021300000      0.651254000
|128> 6        0.269135000     -0.948151000     -0.273228000
|129> 6        0.017515000      1.424686000     -0.247608000
|130> 6        1.671806000     -0.912385000     -0.022880000
|131> 6        1.388411000      1.520479000     -0.000310000
|132> 6        2.271841000      0.411664000      0.121713000
|133> 1       -2.374330000      0.841684000     -1.286424000
|134> 1       -2.201129000     -0.899018000     -1.229379000
|135> 1       -2.700193000      0.907177000      1.216567000
|136> 1       -2.503115000     -0.843239000      1.293601000
|137> 1       -0.175601000     -1.937490000     -0.377355000
|138> 1       -0.567623000      2.331489000     -0.320954000
|139> 1        1.822526000      2.512975000      0.108810000
|140> 1       -4.388116000     -1.083697000     -0.104346000
|141> 1       -4.554502000      0.521729000     -0.292789000
|142> Cu2      3.583535584     -0.951622487      0.385474497
|143> *
|144> 
|145>                          ****END OF INPUT****
================================================================================


                 $$$$$$$$$$$$$$$$$$$$$$$$$$$$$$$$$$$$$$$$$$$$$$ 
                 $ THERE ARE  5 JOBS TO BE PROCESSED THIS RUN $
                 $$$$$$$$$$$$$$$$$$$$$$$$$$$$$$$$$$$$$$$$$$$$$$ 




                 $$$$$$$$$$$$$$$$  JOB NUMBER  1 $$$$$$$$$$$$$$


                       *****************************
                       * Geometry Optimization Run *
                       *****************************

Geometry optimization settings:
Update method            Update   .... BFGS
Choice of coordinates    CoordSys .... Z-matrix Internals
Initial Hessian          InHess   .... Almoef's Model

Convergence Tolerances:
Energy Change            TolE     ....  5.0000e-06 Eh
Max. Gradient            TolMAXG  ....  3.0000e-04 Eh/bohr
RMS Gradient             TolRMSG  ....  1.0000e-04 Eh/bohr
Max. Displacement        TolMAXD  ....  4.0000e-03 bohr
RMS Displacement         TolRMSD  ....  2.0000e-03 bohr
Strict Convergence                ....  False
------------------------------------------------------------------------------
                        ORCA OPTIMIZATION COORDINATE SETUP
------------------------------------------------------------------------------

The optimization will be done in new redundant internal coordinates
Making redundant internal coordinates   ...  (new redundants) done
Evaluating the initial hessian          ...  (Almloef) done
Evaluating the coordinates              ...  done
Calculating the B-matrix                .... done
Calculating the G-matrix                .... done
Diagonalizing the G-matrix              .... done
Small eigenvalue found = 1.757e-02
The first mode is                       ....   89
The number of degrees of freedom        ....   57

    -----------------------------------------------------------------
                    Redundant Internal Coordinates


    -----------------------------------------------------------------
         Definition                    Initial Value    Approx d2E/dq
    -----------------------------------------------------------------
      1. B(C   4,C   3)                  1.5022         0.413818   
      2. B(C   5,C   3)                  1.5378         0.363054   
      3. B(C   5,N   2)                  1.4709         0.415753   
      4. B(C   6,C   4)                  1.4018         0.598285   
      5. B(C   7,C   4)                  1.3830         0.641002   
      6. B(C   8,C   6)                  1.4249         0.549582   
      7. B(C   8,O   0)                  1.2899         0.808405   
      8. B(C   9,C   7)                  1.3959         0.611317   
      9. B(C  10,C   9)                  1.4222         0.555194   
     10. B(C  10,C   8)                  1.4605         0.482279   
     11. B(C  10,O   1)                  1.2898         0.808667   
     12. B(H  11,C   3)                  1.0979         0.349799   
     13. B(H  12,C   3)                  1.0973         0.350556   
     14. B(H  13,C   5)                  1.0959         0.352438   
     15. B(H  14,C   5)                  1.0956         0.352740   
     16. B(H  15,C   6)                  1.0897         0.360529   
     17. B(H  16,C   7)                  1.0817         0.371267   
     18. B(H  17,C   9)                  1.0888         0.361664   
     19. B(H  18,N   2)                  1.0209         0.415660   
     20. B(H  19,N   2)                  1.0330         0.397595   
     21. B(Cu 20,C  10)                  2.6424         0.063491   
     22. B(Cu 20,C   8)                  2.6771         0.055903   
     23. B(Cu 20,O   1)                  2.0889         0.434460   
     24. B(Cu 20,O   0)                  2.1761         0.315430   
     25. A(C   8,O   0,Cu 20)           97.8602         0.447083   
     26. A(C  10,O   1,Cu 20)          100.2120         0.474023   
     27. A(C   5,N   2,H  18)          107.9889         0.333116   
     28. A(H  18,N   2,H  19)          101.1602         0.297289   
     29. A(C   5,N   2,H  19)          105.0635         0.330674   
     30. A(H  11,C   3,H  12)          105.8763         0.288303   
     31. A(C   5,C   3,H  12)          109.2786         0.321385   
     32. A(C   4,C   3,H  11)          109.7818         0.328255   
     33. A(C   4,C   3,H  12)          108.7189         0.328372   
     34. A(C   4,C   3,C   5)          113.9869         0.367969   
     35. A(C   5,C   3,H  11)          108.8831         0.321271   
     36. A(C   3,C   4,C   7)          121.3012         0.406275   
     37. A(C   3,C   4,C   6)          120.8112         0.401361   
     38. A(C   6,C   4,C   7)          117.8833         0.433883   
     39. A(H  13,C   5,H  14)          106.7081         0.288923   
     40. A(C   3,C   5,H  14)          108.5269         0.321712   
     41. A(C   3,C   5,H  13)          110.7019         0.321667   
     42. A(N   2,C   5,H  14)          108.1572         0.326987   
     43. A(N   2,C   5,H  13)          108.6072         0.326941   
     44. A(N   2,C   5,C   3)          113.8673         0.365966   
     45. A(C   8,C   6,H  15)          116.1371         0.345874   
     46. A(C   4,C   6,H  15)          118.6794         0.350858   
     47. A(C   4,C   6,C   8)          125.1823         0.422079   
     48. A(C   9,C   7,H  16)          118.8665         0.353893   
     49. A(C   4,C   7,H  16)          121.7160         0.356751   
     50. A(C   4,C   7,C   9)          119.4165         0.435570   
     51. A(O   0,C   8,C   6)          117.3204         0.442627   
     52. A(C   6,C   8,C  10)          116.4227         0.406219   
     53. A(C   6,C   8,Cu 20)          170.1285         0.313953   
     54. A(O   0,C   8,Cu 20)           53.6309         0.332466   
     55. A(O   0,C   8,C  10)          126.2567         0.432324   
     56. A(C  10,C   8,Cu 20)           72.7617         0.307399   
     57. A(C  10,C   9,H  17)          117.0252         0.346649   
     58. A(C   7,C   9,H  17)          118.1749         0.352326   
     59. A(C   7,C   9,C  10)          124.7996         0.424478   
     60. A(C   8,C  10,C   9)          116.2873         0.406949   
     61. A(O   1,C  10,C   9)          117.4068         0.443467   
     62. A(C   9,C  10,Cu 20)          167.7101         0.321062   
     63. A(O   1,C  10,C   8)          126.3059         0.432349   
     64. A(C   8,C  10,Cu 20)           75.3761         0.313783   
     65. A(O   1,C  10,Cu 20)           51.0781         0.339600   
     66. A(O   1,Cu 20,C  10)           28.7098         0.341066   
     67. A(O   0,Cu 20,C  10)           60.3298         0.323446   
     68. A(O   1,Cu 20,C   8)           60.5258         0.333908   
     69. A(O   0,Cu 20,C   8)           28.5089         0.316788   
     70. A(C   8,Cu 20,C  10)           31.8622         0.248403   
     71. A(O   0,Cu 20,O   1)           88.8867         0.449204   
     72. D(C   6,C   4,C   3,C   5)     64.0726         0.012675   
     73. D(C   6,C   4,C   3,H  12)    -58.0900         0.012675   
     74. D(C   6,C   4,C   3,H  11)   -173.4831         0.012675   
     75. D(C   7,C   4,C   3,H  12)    122.6768         0.012675   
     76. D(C   7,C   4,C   3,H  11)      7.2838         0.012675   
     77. D(C   7,C   4,C   3,C   5)   -115.1605         0.012675   
     78. D(H  14,C   5,N   2,H  18)    -87.9450         0.014741   
     79. D(N   2,C   5,C   3,H  11)    -67.2026         0.010562   
     80. D(N   2,C   5,C   3,H  12)    177.5874         0.010562   
     81. D(H  14,C   5,C   3,H  11)     53.3059         0.010562   
     82. D(N   2,C   5,C   3,C   4)     55.7330         0.010562   
     83. D(H  14,C   5,N   2,H  19)    164.7095         0.014741   
     84. D(C   3,C   5,N   2,H  18)     32.7706         0.014741   
     85. D(H  13,C   5,N   2,H  19)     49.2632         0.014741   
     86. D(H  13,C   5,C   3,C   4)    -66.9647         0.010562   
     87. D(H  14,C   5,C   3,C   4)    176.2415         0.010562   
     88. D(H  13,C   5,C   3,H  11)    170.0997         0.010562   
     89. D(C   3,C   5,N   2,H  19)    -74.5749         0.014741   
     90. D(H  13,C   5,C   3,H  12)     54.8897         0.010562   
     91. D(H  14,C   5,C   3,H  12)    -61.9041         0.010562   
     92. D(H  13,C   5,N   2,H  18)    156.6087         0.014741   
     93. D(H  15,C   6,C   4,C   7)   -179.3299         0.024668   
     94. D(H  15,C   6,C   4,C   3)      1.4114         0.024668   
     95. D(C   8,C   6,C   4,C   7)      1.0831         0.024668   
     96. D(C   8,C   6,C   4,C   3)   -178.1756         0.024668   
     97. D(H  16,C   7,C   4,C   6)    179.5821         0.028554   
     98. D(H  16,C   7,C   4,C   3)     -1.1630         0.028554   
     99. D(C   9,C   7,C   4,C   6)     -0.8061         0.028554   
    100. D(C   9,C   7,C   4,C   3)    178.4488         0.028554   
    101. D(C  10,C   8,O   0,Cu 20)     -4.7864         0.055860   
    102. D(C   6,C   8,O   0,Cu 20)    175.3446         0.055860   
    103. D(Cu 20,C   8,C   6,C   4)   -158.2461         0.022421   
    104. D(C  10,C   8,C   6,H  15)    179.8670         0.022421   
    105. D(C  10,C   8,C   6,C   4)     -0.5366         0.022421   
    106. D(Cu 20,C   8,C   6,H  15)     22.1576         0.022421   
    107. D(O   0,C   8,C   6,H  15)     -0.2509         0.022421   
    108. D(O   0,C   8,C   6,C   4)    179.3454         0.022421   
    109. D(H  17,C   9,C   7,H  16)     -0.1288         0.025816   
    110. D(H  17,C   9,C   7,C   4)   -179.7518         0.025816   
    111. D(C  10,C   9,C   7,H  16)    179.6754         0.025816   
    112. D(C  10,C   9,C   7,C   4)      0.0524         0.025816   
    113. D(Cu 20,C  10,C   9,H  17)    -18.8925         0.022901   
    114. D(Cu 20,C  10,C   9,C   7)    161.3012         0.022901   
    115. D(C   8,C  10,C   9,C   7)      0.4835         0.022901   
    116. D(O   1,C  10,C   9,H  17)      0.2640         0.022901   
    117. D(O   1,C  10,C   9,C   7)   -179.5423         0.022901   
    118. D(Cu 20,C  10,C   8,C   6)   -176.0960         0.018390   
    119. D(Cu 20,C  10,C   8,O   0)      4.0340         0.018390   
    120. D(C   9,C  10,C   8,Cu 20)    175.8550         0.018390   
    121. D(C   9,C  10,C   8,C   6)     -0.2410         0.018390   
    122. D(C   9,C  10,C   8,O   0)    179.8890         0.018390   
    123. D(O   1,C  10,C   8,Cu 20)     -4.1166         0.018390   
    124. D(O   1,C  10,C   8,C   6)    179.7874         0.018390   
    125. D(C   8,C  10,C   9,H  17)   -179.7102         0.022901   
    126. D(O   1,C  10,C   8,O   0)     -0.0826         0.018390   
    127. D(C   9,C  10,O   1,Cu 20)   -174.8490         0.055901   
    128. D(C   8,C  10,O   1,Cu 20)      5.1222         0.055901   
    129. D(O   0,Cu 20,C   8,C   6)    -24.8735         0.001516   
    130. D(C   8,Cu 20,O   1,C  10)     -2.5842         0.002288   
    131. D(O   0,Cu 20,O   1,C  10)     -5.6304         0.002288   
    132. D(C  10,Cu 20,O   0,C   8)      2.4530         0.001919   
    133. D(O   0,Cu 20,C   8,C  10)    175.9602         0.001516   
    134. D(O   1,Cu 20,O   0,C   8)      5.5624         0.001919   
    135. D(C   8,Cu 20,C  10,O   1)    175.7357         0.001520   
    136. D(O   1,Cu 20,C  10,C   9)     21.9899         0.001520   
    137. D(O   1,Cu 20,C  10,C   8)   -175.7357         0.001520   
    138. D(O   0,Cu 20,C  10,C   9)   -164.4923         0.001520   
    139. D(O   0,Cu 20,C  10,C   8)     -2.2179         0.001520   
    140. D(O   0,Cu 20,C  10,O   1)    173.5178         0.001520   
    141. D(C  10,Cu 20,C   8,C   6)    159.1664         0.001516   
    142. D(C  10,Cu 20,C   8,O   0)   -175.9602         0.001516   
    143. D(O   1,Cu 20,C   8,C  10)      2.3515         0.001516   
    144. D(O   1,Cu 20,C   8,C   6)    161.5179         0.001516   
    145. D(C   8,Cu 20,C  10,C   9)   -162.2745         0.001520   
    146. D(O   1,Cu 20,C   8,O   0)   -173.6087         0.001516   
    -----------------------------------------------------------------

Number of atoms                         .... 21
Number of degrees of freedom            .... 146

         *************************************************************
         *                GEOMETRY OPTIMIZATION CYCLE   1            *
         *************************************************************
---------------------------------
CARTESIAN COORDINATES (ANGSTROEM)
---------------------------------
  O     -2.031037   -2.062449   -0.049321
  O     -3.307150    0.599768   -0.503427
  N      2.925979    0.077175   -1.435707
  C      2.153620    0.147371    0.963706
  C      0.699293    0.250785    0.602187
  C      3.015942   -0.544013   -0.105473
  C     -0.084508   -0.900396    0.442535
  C      0.094415    1.478147    0.401001
  C     -1.458703   -0.912270    0.065928
  C     -1.251647    1.527268    0.034471
  C     -2.083157    0.389278   -0.155479
  H      2.560882    1.148697    1.155720
  H      2.243050   -0.399729    1.910689
  H      2.747056   -1.602590   -0.194985
  H      4.062616   -0.511037    0.216663
  H      0.376102   -1.873851    0.608721
  H      0.639013    2.405862    0.514153
  H     -1.706353    2.504030   -0.122715
  H      2.786392    1.080241   -1.306495
  H      2.003359   -0.207406   -1.803065
  Cu    -4.049034   -1.352144   -0.447270

----------------------------
CARTESIAN COORDINATES (A.U.)
----------------------------
  NO LB      ZA    FRAG     MASS         X           Y           Z
   0 O     8.0000    0    15.999   -3.838104   -3.897464   -0.093203
   1 O     8.0000    0    15.999   -6.249608    1.133397   -0.951339
   2 N     7.0000    0    14.007    5.529299    0.145840   -2.713093
   3 C     6.0000    0    12.011    4.069752    0.278491    1.821140
   4 C     6.0000    0    12.011    1.321472    0.473915    1.137969
   5 C     6.0000    0    12.011    5.699304   -1.028036   -0.199315
   6 C     6.0000    0    12.011   -0.159697   -1.701502    0.836270
   7 C     6.0000    0    12.011    0.178418    2.793293    0.757782
   8 C     6.0000    0    12.011   -2.756549   -1.723940    0.124586
   9 C     6.0000    0    12.011   -2.365270    2.886118    0.065141
  10 C     6.0000    0    12.011   -3.936596    0.735629   -0.293813
  11 H     1.0000    0     1.008    4.839366    2.170723    2.183994
  12 H     1.0000    0     1.008    4.238750   -0.755378    3.610679
  13 H     1.0000    0     1.008    5.191184   -3.028456   -0.368468
  14 H     1.0000    0     1.008    7.677232   -0.965720    0.409434
  15 H     1.0000    0     1.008    0.710730   -3.541065    1.150316
  16 H     1.0000    0     1.008    1.207560    4.546420    0.971608
  17 H     1.0000    0     1.008   -3.224540    4.731931   -0.231898
  18 H     1.0000    0     1.008    5.265518    2.041360   -2.468918
  19 H     1.0000    0     1.008    3.785800   -0.391941   -3.407299
  20 Cu   29.0000    0    63.550   -7.651565   -2.555181   -0.845217

--------------------------------
INTERNAL COORDINATES (ANGSTROEM)
--------------------------------
 O      0   0   0     0.000000000000     0.00000000     0.00000000
 O      1   0   0     2.986984433018     0.00000000     0.00000000
 N      1   2   0     5.574232200638    90.00001023     0.00000000
 C      3   1   2     2.521636105362    60.10902995    89.27255979
 C      4   3   1     1.502150946372    93.98270511   328.83546107
 C      3   1   2     1.470880813482    70.57051758   124.93437497
 C      5   4   3     1.401802576494   120.81119965    90.29780929
 C      5   4   3     1.383029529881   121.30124252   271.06465716
 C      1   2   3     1.289868315604    53.72933759    27.57706436
 C      8   5   4     1.395936968987   119.41647599   178.44881207
 C      2   1   3     1.289780103294    53.70799901   332.38254841
 H      4   3   1     1.097900483248    94.48428640   218.60724927
 H      4   3   1     1.097311686436   141.47452775    95.98801439
 H      6   3   1     1.095854618126   108.60720870    58.83471413
 H      6   3   1     1.095621048241   108.15724364   174.28098529
 H      7   5   4     1.089676096701   118.67938329     1.41138362
 H      8   5   4     1.081686404617   121.71595344   358.83696578
 H     10   8   5     1.088819998749   118.17494140   180.24822707
 H      3   1   2     1.020941561437   102.94754382    20.16494417
 H      3   1   2     1.033037225914    35.75545852   288.98515526
 Cu     2   1   3     2.088900319172    46.75027343   159.26286469

---------------------------
INTERNAL COORDINATES (A.U.)
---------------------------
 O      0   0   0     0.000000000000     0.00000000     0.00000000
 O      1   0   0     5.644582544691     0.00000000     0.00000000
 N      1   2   0    10.533772266091    90.00001023     0.00000000
 C      3   1   2     4.765201648542    60.10902995    89.27255979
 C      4   3   1     2.838653900454    93.98270511   328.83546107
 C      3   1   2     2.779561913120    70.57051758   124.93437497
 C      5   4   3     2.649022963399   120.81119965    90.29780929
 C      5   4   3     2.613547046602   121.30124252   271.06465716
 C      1   2   3     2.437497865313    53.72933759    27.57706436
 C      8   5   4     2.637938571602   119.41647599   178.44881207
 C      2   1   3     2.437331168206    53.70799901   332.38254841
 H      4   3   1     2.074731235638    94.48428640   218.60724927
 H      4   3   1     2.073618570915   141.47452775    95.98801439
 H      6   3   1     2.070865110852   108.60720870    58.83471413
 H      6   3   1     2.070423727735   108.15724364   174.28098529
 H      7   5   4     2.059189397445   118.67938329     1.41138362
 H      8   5   4     2.044091067512   121.71595344   358.83696578
 H     10   8   5     2.057571606772   118.17494140   180.24822707
 H      3   1   2     1.929299949853   102.94754382    20.16494417
 H      3   1   2     1.952157443124    35.75545852   288.98515526
 Cu     2   1   3     3.947449524296    46.75027343   159.26286469

---------------------
BASIS SET INFORMATION
---------------------
There are 5 groups of distinct atoms

 Group   1 Type O   : 11s6p2d1f contracted to 5s3p2d1f pattern {62111/411/11/1}
 Group   2 Type N   : 11s6p2d1f contracted to 5s3p2d1f pattern {62111/411/11/1}
 Group   3 Type C   : 11s6p2d1f contracted to 5s3p2d1f pattern {62111/411/11/1}
 Group   4 Type H   : 5s1p contracted to 3s1p pattern {311/1}
 Group   5 Type Cu  : 17s11p7d1f contracted to 6s4p4d1f pattern {842111/6311/4111/1}

Atom   0O    basis set group =>   1
Atom   1O    basis set group =>   1
Atom   2N    basis set group =>   2
Atom   3C    basis set group =>   3
Atom   4C    basis set group =>   3
Atom   5C    basis set group =>   3
Atom   6C    basis set group =>   3
Atom   7C    basis set group =>   3
Atom   8C    basis set group =>   3
Atom   9C    basis set group =>   3
Atom  10C    basis set group =>   3
Atom  11H    basis set group =>   4
Atom  12H    basis set group =>   4
Atom  13H    basis set group =>   4
Atom  14H    basis set group =>   4
Atom  15H    basis set group =>   4
Atom  16H    basis set group =>   4
Atom  17H    basis set group =>   4
Atom  18H    basis set group =>   4
Atom  19H    basis set group =>   4
Atom  20Cu   basis set group =>   5
---------------------------------
AUXILIARY/J BASIS SET INFORMATION
---------------------------------
There are 5 groups of distinct atoms

 Group   1 Type O   : 12s5p4d2f1g contracted to 6s4p3d1f1g pattern {711111/2111/211/2/1}
 Group   2 Type N   : 12s5p4d2f1g contracted to 6s4p3d1f1g pattern {711111/2111/211/2/1}
 Group   3 Type C   : 12s5p4d2f1g contracted to 6s4p3d1f1g pattern {711111/2111/211/2/1}
 Group   4 Type H   : 5s2p1d contracted to 3s1p1d pattern {311/2/1}
 Group   5 Type Cu  : 19s5p5d3f3g contracted to 8s5p4d3f3g pattern {121111111/11111/2111/111/111}

Atom   0O    basis set group =>   1
Atom   1O    basis set group =>   1
Atom   2N    basis set group =>   2
Atom   3C    basis set group =>   3
Atom   4C    basis set group =>   3
Atom   5C    basis set group =>   3
Atom   6C    basis set group =>   3
Atom   7C    basis set group =>   3
Atom   8C    basis set group =>   3
Atom   9C    basis set group =>   3
Atom  10C    basis set group =>   3
Atom  11H    basis set group =>   4
Atom  12H    basis set group =>   4
Atom  13H    basis set group =>   4
Atom  14H    basis set group =>   4
Atom  15H    basis set group =>   4
Atom  16H    basis set group =>   4
Atom  17H    basis set group =>   4
Atom  18H    basis set group =>   4
Atom  19H    basis set group =>   4
Atom  20Cu   basis set group =>   5
No protocol specified


           ************************************************************
           *        Program running with 16 parallel MPI-processes    *
           *              working on a common directory               *
           ************************************************************
------------------------------------------------------------------------------
                           ORCA GTO INTEGRAL CALCULATION
                           -- RI-GTO INTEGRALS CHOSEN --
------------------------------------------------------------------------------
------------------------------------------------------------------------------
                   ___                                                        
                  /   \      - P O W E R E D   B Y -                         
                 /     \                                                     
                 |  |  |   _    _      __       _____    __    __             
                 |  |  |  | |  | |    /  \     |  _  \  |  |  /  |          
                  \  \/   | |  | |   /    \    | | | |  |  | /  /          
                 / \  \   | |__| |  /  /\  \   | |_| |  |  |/  /          
                |  |  |   |  __  | /  /__\  \  |    /   |      \           
                |  |  |   | |  | | |   __   |  |    \   |  |\   \          
                \     /   | |  | | |  |  |  |  | |\  \  |  | \   \       
                 \___/    |_|  |_| |__|  |__|  |_| \__\ |__|  \__/        
                                                                              
                      - O R C A' S   B I G   F R I E N D -                    
                                      &                                       
                       - I N T E G R A L  F E E D E R -                       
                                                                              
 v1 FN, 2020, v2 2021                                                         
------------------------------------------------------------------------------


Reading SHARK input file 1_M0002.SHARKINP.tmp ... ok
----------------------
SHARK INTEGRAL PACKAGE
----------------------

Number of atoms                             ...     21
Number of basis functions                   ...    440
Number of shells                            ...    172
Maximum angular momentum                    ...      3
Integral batch strategy                     ... SHARK/LIBINT Hybrid
RI-J (if used) integral strategy            ... SPLIT-RIJ (Revised 2003 algorithm where possible)
Printlevel                                  ...      1
Contraction scheme used                     ... SEGMENTED contraction
Coulomb Range Separation                    ... NOT USED
Exchange Range Separation                   ... NOT USED
Finite Nucleus Model                        ... NOT USED
Auxiliary Coulomb fitting basis             ... AVAILABLE
   # of basis functions in Aux-J            ...    729
   # of shells in Aux-J                     ...    233
   Maximum angular momentum in Aux-J        ...      4
Auxiliary J/K fitting basis                 ... NOT available
Auxiliary Correlation fitting basis         ... NOT available
Auxiliary 'external' fitting basis          ... NOT available
Integral threshold                          ...     2.500000e-11
Primitive cut-off                           ...     2.500000e-12
Primitive pair pre-selection threshold      ...     2.500000e-12

Calculating pre-screening integrals         ... done (  0.1 sec) Dimension = 172
Organizing shell pair data                  ... done (  0.4 sec)
Shell pair information
Total number of shell pairs                 ...     14878
Shell pairs after pre-screening             ...     12353
Total number of primitive shell pairs       ...     48533
Primitive shell pairs kept                  ...     27993
          la=0 lb=0:   3154 shell pairs
          la=1 lb=0:   3423 shell pairs
          la=1 lb=1:    959 shell pairs
          la=2 lb=0:   1877 shell pairs
          la=2 lb=1:   1033 shell pairs
          la=2 lb=2:    299 shell pairs
          la=3 lb=0:    827 shell pairs
          la=3 lb=1:    463 shell pairs
          la=3 lb=2:    254 shell pairs
          la=3 lb=3:     64 shell pairs

Calculating one electron integrals          ... done (  0.0 sec)
Calculating RI/J V-Matrix + Cholesky decomp.... done (  0.0 sec)
Calculating Nuclear repulsion               ... done (  0.0 sec) ENN=    904.556287453354 Eh

SHARK setup successfully completed in   0.8 seconds

Maximum memory used throughout the entire GTOINT-calculation: 29.0 MB
No protocol specified


           ************************************************************
           *        Program running with 16 parallel MPI-processes    *
           *              working on a common directory               *
           ************************************************************
-------------------------------------------------------------------------------
                                 ORCA SCF
-------------------------------------------------------------------------------

------------
SCF SETTINGS
------------
Hamiltonian:
 Density Functional     Method          .... DFT(GTOs)
 Exchange Functional    Exchange        .... PBE
   PBE kappa parameter   XKappa         ....  0.804000
   PBE mue parameter    XMuePBE         ....  0.219520
 Correlation Functional Correlation     .... PBE
   PBE beta parameter  CBetaPBE         ....  0.066725
 LDA part of GGA corr.  LDAOpt          .... PW91-LDA
 Gradients option       PostSCFGGA      .... off
   Density functional embedding theory  .... OFF
   NL short-range parameter             ....  6.400000
 RI-approximation to the Coulomb term is turned on
   Number of AuxJ basis functions       .... 729


General Settings:
 Integral files         IntName         .... 1_M0002
 Hartree-Fock type      HFTyp           .... UHF
 Total Charge           Charge          ....    0
 Multiplicity           Mult            ....    2
 Number of Electrons    NEL             ....  109
 Basis Dimension        Dim             ....  440
 Nuclear Repulsion      ENuc            ....    904.5562874534 Eh

Convergence Acceleration:
 DIIS                   CNVDIIS         .... on
   Start iteration      DIISMaxIt       ....    12
   Startup error        DIISStart       ....  0.200000
   # of expansion vecs  DIISMaxEq       ....     5
   Bias factor          DIISBfac        ....   1.050
   Max. coefficient     DIISMaxC        ....  10.000
 Trust-Rad. Augm. Hess. CNVTRAH         .... auto
   Auto Start mean grad. ratio tolernc. ....  1.125000
   Auto Start start iteration           ....    20
   Auto Start num. interpolation iter.  ....    10
   Max. Number of Micro iterations      ....    16
   Max. Number of Macro iterations      .... Maxiter - #DIIS iter
   Number of Davidson start vectors     ....     2
   Converg. threshold I  (grad. norm)   ....   1.000e-05
   Converg. threshold II (energy diff.) ....   1.000e-08
   Grad. Scal. Fac. for Micro threshold ....   0.100
   Minimum threshold for Micro iter.    ....   0.010
   NR start threshold (gradient norm)   ....   0.001
   Initial trust radius                 ....   0.400
   Minimum AH scaling param. (alpha)    ....   1.000
   Maximum AH scaling param. (alpha)    .... 1000.000
   Orbital update algorithm             .... Taylor
   White noise on init. David. guess    .... on
   Maximum white noise                  ....   0.010
   Quad. conv. algorithm                .... NR
 SOSCF                  CNVSOSCF        .... off
 Level Shifting         CNVShift        .... on
   Level shift para.    LevelShift      ....    0.2500
   Turn off err/grad.   ShiftErr        ....    0.0010
 Zerner damping         CNVZerner       .... off
 Static damping         CNVDamp         .... on
   Fraction old density DampFac         ....    0.7000
   Max. Damping (<1)    DampMax         ....    0.9800
   Min. Damping (>=0)   DampMin         ....    0.0000
   Turn off err/grad.   DampErr         ....    0.1000
 Fernandez-Rico         CNVRico         .... off

SCF Procedure:
 Maximum # iterations   MaxIter         ....   125
 SCF integral mode      SCFMode         .... Direct
   Integral package                     .... SHARK and LIBINT hybrid scheme
 Reset frequency        DirectResetFreq ....    20
 Integral Threshold     Thresh          ....  2.500e-11 Eh
 Primitive CutOff       TCut            ....  2.500e-12 Eh

Convergence Tolerance:
 Convergence Check Mode ConvCheckMode   .... Total+1el-Energy
 Convergence forced     ConvForced      .... 0
 Energy Change          TolE            ....  1.000e-08 Eh
 1-El. energy change                    ....  1.000e-05 Eh
 DIIS Error             TolErr          ....  5.000e-07


Diagonalization of the overlap matrix:
Smallest eigenvalue                        ... 1.025e-05
Time for diagonalization                   ...    0.052 sec
Threshold for overlap eigenvalues          ... 1.000e-08
Number of eigenvalues below threshold      ... 0
Time for construction of square roots      ...    0.032 sec
Total time needed                          ...    0.086 sec

Time for model grid setup =    0.128 sec

------------------------------
INITIAL GUESS: MODEL POTENTIAL
------------------------------
Loading Hartree-Fock densities                     ... done
Calculating cut-offs                               ... done
Initializing the effective Hamiltonian             ... done
Setting up the integral package (SHARK)            ... done
Starting the Coulomb interaction                   ... done (   0.1 sec)
Reading the grid                                   ... done
Mapping shells                                     ... done
Starting the XC term evaluation                    ... done (   0.1 sec)
  promolecular density results
     # of electrons  =    108.997313855
     EX              =   -131.861517053
     EC              =     -4.029244135
     EX+EC           =   -135.890761189
Transforming the Hamiltonian                       ... done (   0.0 sec)
Diagonalizing the Hamiltonian                      ... done (   0.0 sec)
Back transforming the eigenvectors                 ... done (   0.0 sec)
Now organizing SCF variables                       ... done
                      ------------------
                      INITIAL GUESS DONE (   0.5 sec)
                      ------------------
-------------------
DFT GRID GENERATION
-------------------

General Integration Accuracy     IntAcc      ... 4.388
Radial Grid Type                 RadialGrid  ... OptM3 with GC (2021)
Angular Grid (max. ang.)         AngularGrid ... 4 (Lebedev-302)
Angular grid pruning method      GridPruning ... 4 (adaptive)
Weight generation scheme         WeightScheme... Becke
Basis function cutoff            BFCut       ... 1.0000e-11
Integration weight cutoff        WCut        ... 1.0000e-14
Angular grids for H and He will be reduced by one unit
Partially contracted basis set               ... off
Rotationally invariant grid construction     ... off

Total number of grid points                  ...   105961
Total number of batches                      ...     1665
Average number of points per batch           ...       63
Average number of grid points per atom       ...     5046
Time for grid setup =    0.677 sec

--------------
SCF ITERATIONS
--------------
ITER       Energy         Delta-E        Max-DP      RMS-DP      [F,P]     Damp
               ***  Starting incremental Fock matrix formation  ***
  0  -2154.9529565651   0.000000000000 0.11630993  0.00117653  0.2574403 0.7000
  1  -2155.1332909493  -0.180334384173 0.08903068  0.00090104  0.0987361 0.7000
                               ***Turning on DIIS***
  2  -2155.1885518643  -0.055260915064 0.08035598  0.00102459  0.0354488 0.0000
  3  -2155.2860052305  -0.097453366146 0.08528818  0.00073501  0.0624397 0.0000
  4  -2155.3103133624  -0.024308131909 0.02244879  0.00020033  0.0269145 0.0000
  5  -2155.3136446784  -0.003331316044 0.00816159  0.00008887  0.0100864 0.0000
  6  -2155.3138607164  -0.000216037925 0.00580054  0.00006325  0.0086934 0.0000
  7  -2155.3139420295  -0.000081313167 0.00233636  0.00002684  0.0040054 0.0000
  8  -2155.3139643603  -0.000022330720 0.00089285  0.00001026  0.0010543 0.0000
  9  -2155.3139680583  -0.000003698059 0.00130162  0.00000912  0.0007049 0.0000
 10  -2155.3139708155  -0.000002757173 0.00062624  0.00000331  0.0004064 0.0000
 11  -2155.3139710203  -0.000000204844 0.00015955  0.00000202  0.0003666 0.0000
 12  -2155.3139711075  -0.000000087182 0.00011152  0.00000145  0.0003070 0.0000
 13  -2155.3139713362  -0.000000228695 0.00004599  0.00000057  0.0001697 0.0000
 14  -2155.3139713748  -0.000000038632 0.00004790  0.00000048  0.0000781 0.0000
 15  -2155.3139713679   0.000000006907 0.00007222  0.00000065  0.0000363 0.0000
 16  -2155.3139713769  -0.000000008922 0.00011358  0.00000100  0.0000032 0.0000
 17  -2155.3139713990  -0.000000022138 0.00004999  0.00000051  0.0000064 0.0000
 18  -2155.3139713959   0.000000003104 0.00002384  0.00000020  0.0000116 0.0000
 19  -2155.3139714057  -0.000000009797 0.00012226  0.00000117  0.0000023 0.0000
               *** Restarting incremental Fock matrix formation ***
                                   *** Resetting DIIS ***
 20  -2155.3139713643   0.000000041340 0.00016320  0.00000158  0.0000012 0.0000
 21  -2155.3139713675  -0.000000003126 0.00000541  0.00000008  0.0000051 0.0000
                            ***DIIS convergence achieved***

               *****************************************************
               *                     SUCCESS                       *
               *           SCF CONVERGED AFTER  22 CYCLES          *
               *****************************************************


----------------
TOTAL SCF ENERGY
----------------

Total Energy       :        -2155.31397136 Eh          -58649.07482 eV

Components:
Nuclear Repulsion  :          904.55628745 Eh           24614.22794 eV
Electronic Energy  :        -3059.87025882 Eh          -83263.30277 eV
One Electron Energy:        -4786.62201502 Eh         -130250.60684 eV
Two Electron Energy:         1726.75175621 Eh           46987.30407 eV

Virial components:
Potential Energy   :        -4305.99376097 Eh         -117172.04715 eV
Kinetic Energy     :         2150.67978960 Eh           58522.97233 eV
Virial Ratio       :            2.00215475


DFT components:
N(Alpha)           :       55.000041849690 electrons
N(Beta)            :       54.000042169547 electrons
N(Total)           :      109.000084019237 electrons
E(X)               :     -133.199216936017 Eh       
E(C)               :       -4.041011229464 Eh       
E(XC)              :     -137.240228165481 Eh       
DFET-embed. en.    :        0.000000000000 Eh       

---------------
SCF CONVERGENCE
---------------

  Last Energy change         ...    2.8031e-09  Tolerance :   1.0000e-08
  Last MAX-Density change    ...    1.0683e-05  Tolerance :   1.0000e-07
  Last RMS-Density change    ...    1.0007e-07  Tolerance :   5.0000e-09
  Last DIIS Error            ...    9.4481e-07  Tolerance :   5.0000e-07

             **** THE GBW FILE WAS UPDATED (1_M0002.gbw) ****
             **** DENSITY 1_M0002.scfp WAS UPDATED ****
             **** ENERGY FILE WAS UPDATED (1_M0002.en.tmp) ****
----------------------
UHF SPIN CONTAMINATION
----------------------

Warning: in a DFT calculation there is little theoretical justification to 
         calculate <S**2> as in Hartree-Fock theory. We will do it anyways
         but you should keep in mind that the values have only limited relevance

Expectation value of <S**2>     :     0.752707
Ideal value S*(S+1) for S=0.5   :     0.750000
Deviation                       :     0.002707

             **** THE GBW FILE WAS UPDATED (1_M0002.gbw) ****
             **** DENSITY 1_M0002.scfp WAS UPDATED ****
----------------
ORBITAL ENERGIES
----------------
                 SPIN UP ORBITALS
  NO   OCC          E(Eh)            E(eV) 
   0   1.0000    -321.507697     -8748.6692 
   1   1.0000     -38.269619     -1041.3693 
   2   1.0000     -33.561266      -913.2485 
   3   1.0000     -33.560704      -913.2332 
   4   1.0000     -33.560164      -913.2185 
   5   1.0000     -18.768405      -510.7143 
   6   1.0000     -18.760944      -510.5112 
   7   1.0000     -13.963374      -379.9627 
   8   1.0000      -9.955550      -270.9043 
   9   1.0000      -9.954008      -270.8623 
  10   1.0000      -9.906121      -269.5593 
  11   1.0000      -9.903635      -269.4916 
  12   1.0000      -9.894143      -269.2333 
  13   1.0000      -9.889222      -269.0994 
  14   1.0000      -9.888121      -269.0695 
  15   1.0000      -9.883461      -268.9427 
  16   1.0000      -4.105584      -111.7186 
  17   1.0000      -2.645467       -71.9868 
  18   1.0000      -2.640853       -71.8613 
  19   1.0000      -2.637146       -71.7604 
  20   1.0000      -0.958966       -26.0948 
  21   1.0000      -0.934305       -25.4237 
  22   1.0000      -0.809948       -22.0398 
  23   1.0000      -0.776121       -21.1193 
  24   1.0000      -0.697984       -18.9931 
  25   1.0000      -0.664726       -18.0881 
  26   1.0000      -0.635823       -17.3016 
  27   1.0000      -0.566735       -15.4217 
  28   1.0000      -0.550328       -14.9752 
  29   1.0000      -0.515500       -14.0275 
  30   1.0000      -0.457098       -12.4383 
  31   1.0000      -0.450379       -12.2554 
  32   1.0000      -0.431764       -11.7489 
  33   1.0000      -0.412538       -11.2257 
  34   1.0000      -0.401651       -10.9295 
  35   1.0000      -0.397978       -10.8295 
  36   1.0000      -0.384581       -10.4650 
  37   1.0000      -0.377329       -10.2676 
  38   1.0000      -0.370009       -10.0685 
  39   1.0000      -0.352197        -9.5838 
  40   1.0000      -0.338142        -9.2013 
  41   1.0000      -0.335191        -9.1210 
  42   1.0000      -0.309785        -8.4297 
  43   1.0000      -0.303918        -8.2700 
  44   1.0000      -0.294666        -8.0183 
  45   1.0000      -0.283523        -7.7150 
  46   1.0000      -0.250770        -6.8238 
  47   1.0000      -0.220778        -6.0077 
  48   1.0000      -0.219074        -5.9613 
  49   1.0000      -0.213515        -5.8100 
  50   1.0000      -0.211341        -5.7509 
  51   1.0000      -0.207915        -5.6576 
  52   1.0000      -0.202898        -5.5211 
  53   1.0000      -0.188493        -5.1292 
  54   1.0000      -0.180811        -4.9201 
  55   0.0000      -0.123695        -3.3659 
  56   0.0000      -0.046296        -1.2598 
  57   0.0000      -0.028177        -0.7667 
  58   0.0000       0.011173         0.3040 
  59   0.0000       0.035980         0.9791 
  60   0.0000       0.038870         1.0577 
  61   0.0000       0.041948         1.1415 
  62   0.0000       0.052057         1.4165 
  63   0.0000       0.054036         1.4704 
  64   0.0000       0.060381         1.6430 
  65   0.0000       0.073554         2.0015 
  66   0.0000       0.079916         2.1746 
  67   0.0000       0.084050         2.2871 
  68   0.0000       0.091269         2.4836 
  69   0.0000       0.103662         2.8208 
  70   0.0000       0.115418         3.1407 
  71   0.0000       0.118903         3.2355 
  72   0.0000       0.138292         3.7631 
  73   0.0000       0.144256         3.9254 
  74   0.0000       0.151425         4.1205 
  75   0.0000       0.159615         4.3433 
  76   0.0000       0.171052         4.6546 
  77   0.0000       0.177700         4.8355 
  78   0.0000       0.178591         4.8597 
  79   0.0000       0.185463         5.0467 
  80   0.0000       0.190619         5.1870 
  81   0.0000       0.196379         5.3437 
  82   0.0000       0.214974         5.8497 
  83   0.0000       0.218441         5.9441 
  84   0.0000       0.225752         6.1430 
  85   0.0000       0.231529         6.3002 
  86   0.0000       0.241405         6.5690 
  87   0.0000       0.249712         6.7950 
  88   0.0000       0.257316         7.0019 
  89   0.0000       0.263609         7.1732 
  90   0.0000       0.273802         7.4505 
  91   0.0000       0.280010         7.6195 
  92   0.0000       0.283578         7.7165 
  93   0.0000       0.291773         7.9395 
  94   0.0000       0.300832         8.1861 
  95   0.0000       0.306012         8.3270 
  96   0.0000       0.316128         8.6023 
  97   0.0000       0.322783         8.7834 
  98   0.0000       0.325427         8.8553 
  99   0.0000       0.334262         9.0957 
 100   0.0000       0.343683         9.3521 
 101   0.0000       0.355692         9.6789 
 102   0.0000       0.369816        10.0632 
 103   0.0000       0.378280        10.2935 
 104   0.0000       0.379801        10.3349 
 105   0.0000       0.385778        10.4976 
 106   0.0000       0.399242        10.8639 
 107   0.0000       0.400619        10.9014 
 108   0.0000       0.405761        11.0413 
 109   0.0000       0.412036        11.2121 
 110   0.0000       0.422573        11.4988 
 111   0.0000       0.428053        11.6479 
 112   0.0000       0.444268        12.0891 
 113   0.0000       0.449076        12.2200 
 114   0.0000       0.452329        12.3085 
 115   0.0000       0.457203        12.4411 
 116   0.0000       0.460383        12.5277 
 117   0.0000       0.478587        13.0230 
 118   0.0000       0.481522        13.1029 
 119   0.0000       0.495807        13.4916 
 120   0.0000       0.507962        13.8223 
 121   0.0000       0.524801        14.2805 
 122   0.0000       0.534591        14.5470 
 123   0.0000       0.543603        14.7922 
 124   0.0000       0.557006        15.1569 
 125   0.0000       0.567645        15.4464 
 126   0.0000       0.573490        15.6054 
 127   0.0000       0.600549        16.3418 
 128   0.0000       0.611538        16.6408 
 129   0.0000       0.615547        16.7499 
 130   0.0000       0.620853        16.8943 
 131   0.0000       0.633944        17.2505 
 132   0.0000       0.640983        17.4420 
 133   0.0000       0.652081        17.7440 
 134   0.0000       0.662999        18.0411 
 135   0.0000       0.674662        18.3585 
 136   0.0000       0.705335        19.1931 
 137   0.0000       0.713496        19.4152 
 138   0.0000       0.716160        19.4877 
 139   0.0000       0.739744        20.1295 
 140   0.0000       0.761154        20.7121 
 141   0.0000       0.769877        20.9494 
 142   0.0000       0.779274        21.2051 
 143   0.0000       0.789252        21.4766 
 144   0.0000       0.800638        21.7865 
 145   0.0000       0.808352        21.9964 
 146   0.0000       0.813884        22.1469 
 147   0.0000       0.817466        22.2444 
 148   0.0000       0.827110        22.5068 
 149   0.0000       0.832157        22.6441 
 150   0.0000       0.845930        23.0189 
 151   0.0000       0.847968        23.0744 
 152   0.0000       0.864503        23.5243 
 153   0.0000       0.874074        23.7848 
 154   0.0000       0.891482        24.2585 
 155   0.0000       0.911945        24.8153 
 156   0.0000       0.941537        25.6205 
 157   0.0000       0.943208        25.6660 
 158   0.0000       0.952037        25.9063 
 159   0.0000       0.968916        26.3656 
 160   0.0000       0.974156        26.5081 
 161   0.0000       1.011964        27.5370 
 162   0.0000       1.019514        27.7424 
 163   0.0000       1.036999        28.2182 
 164   0.0000       1.067685        29.0532 
 165   0.0000       1.071758        29.1640 
 166   0.0000       1.087051        29.5802 
 167   0.0000       1.093198        29.7474 
 168   0.0000       1.127588        30.6832 
 169   0.0000       1.134852        30.8809 
 170   0.0000       1.160298        31.5733 
 171   0.0000       1.166953        31.7544 
 172   0.0000       1.172511        31.9056 
 173   0.0000       1.189898        32.3788 
 174   0.0000       1.201858        32.7042 
 175   0.0000       1.212486        32.9934 
 176   0.0000       1.229812        33.4649 
 177   0.0000       1.250302        34.0225 
 178   0.0000       1.261355        34.3232 
 179   0.0000       1.280439        34.8425 
 180   0.0000       1.293784        35.2057 
 181   0.0000       1.306298        35.5462 
 182   0.0000       1.313772        35.7496 
 183   0.0000       1.341329        36.4994 
 184   0.0000       1.348917        36.7059 
 185   0.0000       1.361197        37.0400 
 186   0.0000       1.372349        37.3435 
 187   0.0000       1.399021        38.0693 
 188   0.0000       1.415733        38.5240 
 189   0.0000       1.448105        39.4049 
 190   0.0000       1.467357        39.9288 
 191   0.0000       1.471417        40.0393 
 192   0.0000       1.480112        40.2759 
 193   0.0000       1.504448        40.9381 
 194   0.0000       1.512296        41.1517 
 195   0.0000       1.515084        41.2275 
 196   0.0000       1.526315        41.5331 
 197   0.0000       1.556435        42.3527 
 198   0.0000       1.573137        42.8072 
 199   0.0000       1.582768        43.0693 
 200   0.0000       1.586822        43.1796 
 201   0.0000       1.613248        43.8987 
 202   0.0000       1.635044        44.4918 
 203   0.0000       1.655061        45.0365 
 204   0.0000       1.667097        45.3640 
 205   0.0000       1.679132        45.6915 
 206   0.0000       1.697096        46.1803 
 207   0.0000       1.702799        46.3355 
 208   0.0000       1.725047        46.9409 
 209   0.0000       1.748965        47.5918 
 210   0.0000       1.749879        47.6166 
 211   0.0000       1.766523        48.0695 
 212   0.0000       1.774862        48.2964 
 213   0.0000       1.791840        48.7584 
 214   0.0000       1.803408        49.0732 
 215   0.0000       1.821823        49.5743 
 216   0.0000       1.834752        49.9261 
 217   0.0000       1.882639        51.2292 
 218   0.0000       1.887338        51.3571 
 219   0.0000       1.907316        51.9007 
 220   0.0000       1.911258        52.0080 
 221   0.0000       1.925788        52.4034 
 222   0.0000       1.935853        52.6772 
 223   0.0000       1.953820        53.1662 
 224   0.0000       1.967732        53.5447 
 225   0.0000       1.977819        53.8192 
 226   0.0000       2.003647        54.5220 
 227   0.0000       2.008565        54.6558 
 228   0.0000       2.027130        55.1610 
 229   0.0000       2.034819        55.3703 
 230   0.0000       2.051942        55.8362 
 231   0.0000       2.058570        56.0165 
 232   0.0000       2.071627        56.3718 
 233   0.0000       2.086908        56.7877 
 234   0.0000       2.090092        56.8743 
 235   0.0000       2.121737        57.7354 
 236   0.0000       2.140183        58.2373 
 237   0.0000       2.156424        58.6793 
 238   0.0000       2.182531        59.3897 
 239   0.0000       2.200787        59.8865 
 240   0.0000       2.204928        59.9991 
 241   0.0000       2.221898        60.4609 
 242   0.0000       2.235424        60.8290 
 243   0.0000       2.252951        61.3059 
 244   0.0000       2.293232        62.4020 
 245   0.0000       2.309837        62.8539 
 246   0.0000       2.347655        63.8829 
 247   0.0000       2.357346        64.1467 
 248   0.0000       2.388042        64.9819 
 249   0.0000       2.401956        65.3605 
 250   0.0000       2.406526        65.4849 
 251   0.0000       2.418221        65.8031 
 252   0.0000       2.425474        66.0005 
 253   0.0000       2.455364        66.8138 
 254   0.0000       2.463806        67.0436 
 255   0.0000       2.488242        67.7085 
 256   0.0000       2.501300        68.0638 
 257   0.0000       2.525504        68.7225 
 258   0.0000       2.535322        68.9896 
 259   0.0000       2.548851        69.3578 
 260   0.0000       2.552054        69.4449 
 261   0.0000       2.565010        69.7975 
 262   0.0000       2.580389        70.2160 
 263   0.0000       2.598673        70.7135 
 264   0.0000       2.602921        70.8291 
 265   0.0000       2.615684        71.1764 
 266   0.0000       2.630080        71.5681 
 267   0.0000       2.644850        71.9700 
 268   0.0000       2.659841        72.3780 
 269   0.0000       2.676202        72.8232 
 270   0.0000       2.689128        73.1749 
 271   0.0000       2.708150        73.6925 
 272   0.0000       2.714324        73.8605 
 273   0.0000       2.732369        74.3515 
 274   0.0000       2.743127        74.6443 
 275   0.0000       2.749708        74.8233 
 276   0.0000       2.773149        75.4612 
 277   0.0000       2.788150        75.8694 
 278   0.0000       2.801216        76.2250 
 279   0.0000       2.804779        76.3219 
 280   0.0000       2.813402        76.5565 
 281   0.0000       2.832521        77.0768 
 282   0.0000       2.848720        77.5176 
 283   0.0000       2.868137        78.0460 
 284   0.0000       2.870958        78.1227 
 285   0.0000       2.887622        78.5762 
 286   0.0000       2.927676        79.6661 
 287   0.0000       2.940098        80.0041 
 288   0.0000       2.947653        80.2097 
 289   0.0000       2.981748        81.1375 
 290   0.0000       2.984607        81.2153 
 291   0.0000       2.999889        81.6311 
 292   0.0000       3.008250        81.8586 
 293   0.0000       3.019308        82.1595 
 294   0.0000       3.036347        82.6232 
 295   0.0000       3.065373        83.4130 
 296   0.0000       3.077567        83.7449 
 297   0.0000       3.085608        83.9637 
 298   0.0000       3.096176        84.2512 
 299   0.0000       3.102646        84.4273 
 300   0.0000       3.107183        84.5507 
 301   0.0000       3.119071        84.8742 
 302   0.0000       3.123120        84.9844 
 303   0.0000       3.139588        85.4325 
 304   0.0000       3.168291        86.2136 
 305   0.0000       3.178781        86.4990 
 306   0.0000       3.187317        86.7313 
 307   0.0000       3.191599        86.8478 
 308   0.0000       3.220162        87.6251 
 309   0.0000       3.245866        88.3245 
 310   0.0000       3.253057        88.5202 
 311   0.0000       3.258638        88.6720 
 312   0.0000       3.271207        89.0141 
 313   0.0000       3.280761        89.2740 
 314   0.0000       3.293861        89.6305 
 315   0.0000       3.302684        89.8706 
 316   0.0000       3.314533        90.1930 
 317   0.0000       3.321366        90.3790 
 318   0.0000       3.333818        90.7178 
 319   0.0000       3.342290        90.9483 
 320   0.0000       3.372067        91.7586 
 321   0.0000       3.389901        92.2439 
 322   0.0000       3.407626        92.7262 
 323   0.0000       3.411815        92.8402 
 324   0.0000       3.421862        93.1136 
 325   0.0000       3.440821        93.6295 
 326   0.0000       3.445224        93.7493 
 327   0.0000       3.477593        94.6301 
 328   0.0000       3.489967        94.9668 
 329   0.0000       3.499838        95.2354 
 330   0.0000       3.544327        96.4460 
 331   0.0000       3.552145        96.6588 
 332   0.0000       3.569832        97.1401 
 333   0.0000       3.577787        97.3565 
 334   0.0000       3.588487        97.6477 
 335   0.0000       3.597711        97.8987 
 336   0.0000       3.638504        99.0087 
 337   0.0000       3.658369        99.5493 
 338   0.0000       3.706004       100.8455 
 339   0.0000       3.722162       101.2852 
 340   0.0000       3.736473       101.6746 
 341   0.0000       3.743376       101.8624 
 342   0.0000       3.761709       102.3613 
 343   0.0000       3.790229       103.1374 
 344   0.0000       3.807334       103.6028 
 345   0.0000       3.818650       103.9107 
 346   0.0000       3.834807       104.3504 
 347   0.0000       3.858009       104.9818 
 348   0.0000       3.870428       105.3197 
 349   0.0000       3.891203       105.8850 
 350   0.0000       3.927422       106.8706 
 351   0.0000       3.932007       106.9953 
 352   0.0000       3.962483       107.8246 
 353   0.0000       3.979904       108.2987 
 354   0.0000       4.007679       109.0545 
 355   0.0000       4.008577       109.0789 
 356   0.0000       4.036547       109.8400 
 357   0.0000       4.056456       110.3818 
 358   0.0000       4.077324       110.9496 
 359   0.0000       4.104040       111.6766 
 360   0.0000       4.119689       112.1024 
 361   0.0000       4.144458       112.7764 
 362   0.0000       4.159374       113.1823 
 363   0.0000       4.206559       114.4663 
 364   0.0000       4.237676       115.3130 
 365   0.0000       4.273988       116.3011 
 366   0.0000       4.293616       116.8352 
 367   0.0000       4.326359       117.7262 
 368   0.0000       4.339963       118.0964 
 369   0.0000       4.389950       119.4566 
 370   0.0000       4.409677       119.9934 
 371   0.0000       4.453563       121.1876 
 372   0.0000       4.459136       121.3393 
 373   0.0000       4.490808       122.2011 
 374   0.0000       4.529916       123.2653 
 375   0.0000       4.579349       124.6104 
 376   0.0000       4.589811       124.8951 
 377   0.0000       4.636686       126.1706 
 378   0.0000       4.657510       126.7373 
 379   0.0000       4.692713       127.6952 
 380   0.0000       4.749875       129.2507 
 381   0.0000       4.770706       129.8175 
 382   0.0000       4.806980       130.8046 
 383   0.0000       4.843842       131.8076 
 384   0.0000       4.862343       132.3111 
 385   0.0000       4.892055       133.1196 
 386   0.0000       4.937169       134.3472 
 387   0.0000       4.942836       134.5014 
 388   0.0000       4.976800       135.4256 
 389   0.0000       5.020010       136.6014 
 390   0.0000       5.047011       137.3361 
 391   0.0000       5.079037       138.2076 
 392   0.0000       5.094732       138.6347 
 393   0.0000       5.101449       138.8175 
 394   0.0000       5.124871       139.4548 
 395   0.0000       5.155428       140.2863 
 396   0.0000       5.224921       142.1773 
 397   0.0000       5.253241       142.9480 
 398   0.0000       5.273100       143.4883 
 399   0.0000       5.345767       145.4657 
 400   0.0000       5.447867       148.2440 
 401   0.0000       5.455676       148.4565 
 402   0.0000       5.473024       148.9286 
 403   0.0000       5.487545       149.3237 
 404   0.0000       5.605229       152.5260 
 405   0.0000       5.636732       153.3833 
 406   0.0000       5.639524       153.4593 
 407   0.0000       5.640740       153.4923 
 408   0.0000       5.645622       153.6252 
 409   0.0000       5.653130       153.8295 
 410   0.0000       5.672542       154.3577 
 411   0.0000       5.684667       154.6877 
 412   0.0000       5.704901       155.2382 
 413   0.0000       5.757594       156.6721 
 414   0.0000       5.950581       161.9235 
 415   0.0000       5.984422       162.8444 
 416   0.0000       6.150207       167.3557 
 417   0.0000       6.211986       169.0367 
 418   0.0000       6.222680       169.3277 
 419   0.0000       6.268901       170.5855 
 420   0.0000       6.445538       175.3920 
 421   0.0000       6.592773       179.3985 
 422   0.0000       6.610669       179.8855 
 423   0.0000       6.635998       180.5747 
 424   0.0000       6.693828       182.1483 
 425   0.0000       6.799406       185.0212 
 426   0.0000       6.889810       187.4813 
 427   0.0000       6.933070       188.6584 
 428   0.0000       7.081199       192.6892 
 429   0.0000      21.972736       597.9085 
 430   0.0000      22.165699       603.1593 
 431   0.0000      22.279116       606.2456 
 432   0.0000      22.445596       610.7757 
 433   0.0000      22.505058       612.3938 
 434   0.0000      22.686375       617.3276 
 435   0.0000      22.716619       618.1506 
 436   0.0000      23.205459       631.4526 
 437   0.0000      31.637758       860.9072 
 438   0.0000      43.489066      1183.3977 
 439   0.0000      43.602878      1186.4946 

                 SPIN DOWN ORBITALS
  NO   OCC          E(Eh)            E(eV) 
   0   1.0000    -321.507696     -8748.6692 
   1   1.0000     -38.269041     -1041.3536 
   2   1.0000     -33.560704      -913.2332 
   3   1.0000     -33.560148      -913.2180 
   4   1.0000     -33.559989      -913.2137 
   5   1.0000     -18.762782      -510.5613 
   6   1.0000     -18.755778      -510.3707 
   7   1.0000     -13.963374      -379.9627 
   8   1.0000      -9.953543      -270.8497 
   9   1.0000      -9.952386      -270.8182 
  10   1.0000      -9.905954      -269.5547 
  11   1.0000      -9.902073      -269.4491 
  12   1.0000      -9.892584      -269.1909 
  13   1.0000      -9.889290      -269.1012 
  14   1.0000      -9.887743      -269.0592 
  15   1.0000      -9.883433      -268.9419 
  16   1.0000      -4.104509      -111.6894 
  17   1.0000      -2.644121       -71.9502 
  18   1.0000      -2.639511       -71.8247 
  19   1.0000      -2.636682       -71.7478 
  20   1.0000      -0.950174       -25.8555 
  21   1.0000      -0.925201       -25.1760 
  22   1.0000      -0.809493       -22.0274 
  23   1.0000      -0.772027       -21.0079 
  24   1.0000      -0.694842       -18.9076 
  25   1.0000      -0.660495       -17.9730 
  26   1.0000      -0.631652       -17.1881 
  27   1.0000      -0.564341       -15.3565 
  28   1.0000      -0.547403       -14.8956 
  29   1.0000      -0.512503       -13.9459 
  30   1.0000      -0.455677       -12.3996 
[...]
      pz      :     0.932674  p :     2.939509
      px      :     1.007501
      py      :     0.999333
      dz2     :     0.029259  d :     0.357436
      dxz     :     0.057505
      dyz     :     0.026635
      dx2y2   :     0.132162
      dxy     :     0.111876
      f0      :     0.003340  f :     0.040128
      f+1     :     0.004343
      f-1     :     0.003212
      f+2     :     0.004226
      f-2     :     0.004382
      f+3     :     0.008005
      f-3     :     0.012619
  7 C s       :     2.767899  s :     2.767899
      pz      :     0.892182  p :     2.919249
      px      :     1.035220
      py      :     0.991847
      dz2     :     0.031064  d :     0.383199
      dxz     :     0.055441
      dyz     :     0.041138
      dx2y2   :     0.099684
      dxy     :     0.155872
      f0      :     0.003029  f :     0.041154
      f+1     :     0.004259
      f-1     :     0.003353
      f+2     :     0.006910
      f-2     :     0.002655
      f+3     :     0.008176
      f-3     :     0.012772
  8 C s       :     2.733987  s :     2.733987
      pz      :     0.815428  p :     2.739160
      px      :     0.990831
      py      :     0.932900
      dz2     :     0.056830  d :     0.708252
      dxz     :     0.101911
      dyz     :     0.099881
      dx2y2   :     0.246122
      dxy     :     0.203507
      f0      :     0.006897  f :     0.098310
      f+1     :     0.006347
      f-1     :     0.008177
      f+2     :     0.007451
      f-2     :     0.016165
      f+3     :     0.019594
      f-3     :     0.033678
  9 C s       :     2.773922  s :     2.773922
      pz      :     0.916149  p :     2.947486
      px      :     1.045480
      py      :     0.985857
      dz2     :     0.029592  d :     0.361840
      dxz     :     0.062641
      dyz     :     0.024891
      dx2y2   :     0.112554
      dxy     :     0.132162
      f0      :     0.003279  f :     0.040810
      f+1     :     0.004638
      f-1     :     0.003199
      f+2     :     0.004183
      f-2     :     0.004755
      f+3     :     0.008822
      f-3     :     0.011934
 10 C s       :     2.735105  s :     2.735105
      pz      :     0.809939  p :     2.739558
      px      :     0.904125
      py      :     1.025494
      dz2     :     0.058839  d :     0.705536
      dxz     :     0.133339
      dyz     :     0.067155
      dx2y2   :     0.201525
      dxy     :     0.244679
      f0      :     0.006511  f :     0.098344
      f+1     :     0.011003
      f-1     :     0.004399
      f+2     :     0.015144
      f-2     :     0.009114
      f+3     :     0.017819
      f-3     :     0.034355
 11 H s       :     0.800161  s :     0.800161
      pz      :     0.020013  p :     0.058012
      px      :     0.013737
      py      :     0.024262
 12 H s       :     0.799876  s :     0.799876
      pz      :     0.017512  p :     0.057975
      px      :     0.012276
      py      :     0.028186
 13 H s       :     0.808395  s :     0.808395
      pz      :     0.018344  p :     0.057932
      px      :     0.010823
      py      :     0.028764
 14 H s       :     0.806715  s :     0.806715
      pz      :     0.020665  p :     0.057958
      px      :     0.012178
      py      :     0.025115
 15 H s       :     0.789159  s :     0.789159
      pz      :     0.014650  p :     0.059311
      px      :     0.013683
      py      :     0.030978
 16 H s       :     0.792875  s :     0.792875
      pz      :     0.013712  p :     0.058452
      px      :     0.018932
      py      :     0.025807
 17 H s       :     0.790656  s :     0.790656
      pz      :     0.014113  p :     0.059285
      px      :     0.014282
      py      :     0.030890
 18 H s       :     0.743486  s :     0.743486
      pz      :     0.040558  p :     0.107636
      px      :     0.022818
      py      :     0.044259
 19 H s       :     0.743862  s :     0.743862
      pz      :     0.043792  p :     0.107692
      px      :     0.025322
      py      :     0.038578
 20 Cus       :     6.336893  s :     6.336893
      pz      :     4.046186  p :    12.291961
      px      :     4.071035
      py      :     4.174741
      dz2     :     1.987666  d :    10.114200
      dxz     :     1.998052
      dyz     :     2.019424
      dx2y2   :     2.054686
      dxy     :     2.054371
      f0      :     0.000016  f :     0.000236
      f+1     :     0.000020
      f-1     :     0.000027
      f+2     :     0.000022
      f-2     :     0.000020
      f+3     :     0.000076
      f-3     :     0.000055

SPIN
  0 O s       :     0.002370  s :     0.002370
      pz      :     0.154343  p :     0.164230
      px      :     0.008880
      py      :     0.001007
      dz2     :     0.000145  d :     0.004078
      dxz     :     0.001431
      dyz     :     0.002494
      dx2y2   :     0.000021
      dxy     :    -0.000013
      f0      :     0.000105  f :     0.000263
      f+1     :    -0.000005
      f-1     :    -0.000017
      f+2     :     0.000028
      f-2     :     0.000148
      f+3     :    -0.000004
      f-3     :     0.000009
  1 O s       :     0.002706  s :     0.002706
      pz      :     0.173058  p :     0.185509
      px      :     0.009186
      py      :     0.003265
      dz2     :     0.000676  d :     0.004699
      dxz     :     0.003987
      dyz     :     0.000005
      dx2y2   :     0.000109
      dxy     :    -0.000077
      f0      :     0.000068  f :     0.000307
      f+1     :     0.000081
      f-1     :     0.000001
      f+2     :     0.000137
      f-2     :     0.000012
      f+3     :     0.000009
      f-3     :    -0.000001
  2 N s       :     0.000531  s :     0.000531
      pz      :     0.004955  p :     0.009581
      px      :     0.004480
      py      :     0.000146
      dz2     :     0.000075  d :     0.000319
      dxz     :     0.000183
      dyz     :    -0.000017
      dx2y2   :     0.000047
      dxy     :     0.000029
      f0      :     0.000002  f :     0.000017
      f+1     :     0.000000
      f-1     :     0.000001
      f+2     :     0.000017
      f-2     :    -0.000003
      f+3     :     0.000000
      f-3     :    -0.000001
  3 C s       :    -0.000302  s :    -0.000302
      pz      :     0.002239  p :     0.001138
      px      :    -0.000801
      py      :    -0.000300
      dz2     :     0.000107  d :     0.010160
      dxz     :     0.009283
      dyz     :     0.000115
      dx2y2   :     0.000650
      dxy     :     0.000004
      f0      :     0.000209  f :     0.001128
      f+1     :     0.000388
      f-1     :     0.000006
      f+2     :     0.000386
      f-2     :     0.000098
      f+3     :     0.000031
      f-3     :     0.000009
  4 C s       :     0.001923  s :     0.001923
      pz      :     0.078198  p :     0.083315
      px      :     0.004620
      py      :     0.000496
      dz2     :    -0.000259  d :     0.010271
      dxz     :    -0.000456
      dyz     :     0.010294
      dx2y2   :     0.000085
      dxy     :     0.000607
      f0      :    -0.000133  f :     0.000759
      f+1     :    -0.000064
      f-1     :     0.000003
      f+2     :     0.000400
      f-2     :     0.000518
      f+3     :     0.000031
      f-3     :     0.000004
  5 C s       :     0.001664  s :     0.001664
      pz      :     0.004283  p :     0.008267
      px      :     0.003416
      py      :     0.000568
      dz2     :     0.000020  d :     0.000818
      dxz     :     0.000705
      dyz     :    -0.000048
      dx2y2   :     0.000070
      dxy     :     0.000071
      f0      :     0.000010  f :     0.000089
      f+1     :     0.000028
      f-1     :     0.000002
      f+2     :     0.000037
      f-2     :     0.000006
      f+3     :     0.000007
      f-3     :    -0.000000
  6 C s       :    -0.000579  s :    -0.000579
      pz      :     0.003043  p :     0.000803
      px      :    -0.001693
      py      :    -0.000546
      dz2     :     0.001561  d :     0.018415
      dxz     :     0.012755
      dyz     :     0.002941
      dx2y2   :     0.001175
      dxy     :    -0.000017
      f0      :     0.000117  f :     0.002440
      f+1     :     0.000153
      f-1     :     0.000079
      f+2     :     0.000856
      f-2     :     0.001038
      f+3     :     0.000084
      f-3     :     0.000114
  7 C s       :     0.002003  s :     0.002003
      pz      :     0.089296  p :     0.094652
      px      :     0.004892
      py      :     0.000464
      dz2     :     0.001349  d :     0.013115
      dxz     :     0.008999
      dyz     :     0.002067
      dx2y2   :     0.000394
      dxy     :     0.000306
      f0      :    -0.000111  f :     0.000763
      f+1     :    -0.000035
      f-1     :    -0.000059
      f+2     :     0.000774
      f-2     :     0.000152
      f+3     :     0.000045
      f-3     :    -0.000003
  8 C s       :     0.001562  s :     0.001562
      pz      :     0.094726  p :     0.097360
      px      :     0.003941
      py      :    -0.001307
      dz2     :    -0.000116  d :     0.029879
      dxz     :     0.003645
      dyz     :     0.024780
      dx2y2   :     0.000515
      dxy     :     0.001055
      f0      :     0.000218  f :     0.003750
      f+1     :    -0.000157
      f-1     :     0.000172
      f+2     :     0.000042
      f-2     :     0.003133
      f+3     :     0.000097
      f-3     :     0.000246
  9 C s       :    -0.000190  s :    -0.000190
      pz      :     0.020144  p :     0.018693
      px      :    -0.000556
      py      :    -0.000894
      dz2     :     0.001728  d :     0.021496
      dxz     :     0.014968
      dyz     :     0.003506
      dx2y2   :     0.000823
      dxy     :     0.000471
      f0      :     0.000068  f :     0.002609
      f+1     :     0.000249
      f-1     :     0.000024
      f+2     :     0.001203
      f-2     :     0.000865
      f+3     :     0.000113
      f-3     :     0.000088
 10 C s       :     0.001865  s :     0.001865
      pz      :     0.107722  p :     0.111378
      px      :     0.003885
      py      :    -0.000229
      dz2     :     0.004027  d :     0.032967
      dxz     :     0.025138
      dyz     :     0.002133
      dx2y2   :     0.001214
      dxy     :     0.000454
      f0      :    -0.000027  f :     0.004246
      f+1     :     0.000760
      f-1     :    -0.000123
      f+2     :     0.003206
      f-2     :     0.000065
      f+3     :     0.000316
      f-3     :     0.000049
 11 H s       :     0.002227  s :     0.002227
      pz      :    -0.000011  p :    -0.000058
      px      :    -0.000051
      py      :     0.000004
 12 H s       :     0.001017  s :     0.001017
      pz      :     0.000086  p :     0.000022
      px      :    -0.000052
      py      :    -0.000012
 13 H s       :     0.000302  s :     0.000302
      pz      :     0.000178  p :     0.000207
      px      :    -0.000009
      py      :     0.000037
 14 H s       :     0.000182  s :     0.000182
      pz      :     0.000100  p :     0.000126
      px      :     0.000019
      py      :     0.000007
 15 H s       :    -0.000361  s :    -0.000361
      pz      :    -0.000013  p :    -0.000083
      px      :    -0.000054
      py      :    -0.000016
 16 H s       :    -0.002618  s :    -0.002618
      pz      :     0.002157  p :     0.002597
      px      :     0.000224
      py      :     0.000216
 17 H s       :    -0.000815  s :    -0.000815
      pz      :     0.000376  p :     0.000391
      px      :    -0.000025
      py      :     0.000040
 18 H s       :    -0.000194  s :    -0.000194
      pz      :     0.000134  p :     0.000286
      px      :     0.000130
      py      :     0.000022
 19 H s       :    -0.000031  s :    -0.000031
      pz      :     0.000157  p :     0.000287
      px      :     0.000115
      py      :     0.000015
 20 Cus       :    -0.004355  s :    -0.004355
      pz      :     0.015347  p :     0.014297
      px      :     0.000402
      py      :    -0.001452
      dz2     :     0.002331  d :     0.035502
      dxz     :     0.025633
      dyz     :     0.005738
      dx2y2   :     0.001898
      dxy     :    -0.000098
      f0      :     0.000003  f :     0.000004
      f+1     :     0.000001
      f-1     :     0.000000
      f+2     :    -0.000000
      f-2     :    -0.000000
      f+3     :    -0.000000
      f-3     :     0.000000


                      *****************************
                      * MAYER POPULATION ANALYSIS *
                      *****************************

  NA   - Mulliken gross atomic population
  ZA   - Total nuclear charge
  QA   - Mulliken gross atomic charge
  VA   - Mayer's total valence
  BVA  - Mayer's bonded valence
  FA   - Mayer's free valence

  ATOM       NA         ZA         QA         VA         BVA        FA
  0 O      8.3862     8.0000    -0.3862     2.1944     2.1626     0.0318
  1 O      8.3768     8.0000    -0.3768     2.1979     2.1576     0.0404
  2 N      7.4366     7.0000    -0.4366     3.0055     3.0053     0.0001
  3 C      6.2108     6.0000    -0.2108     3.8214     3.8212     0.0002
  4 C      5.7257     6.0000     0.2743     3.5945     3.5828     0.0118
  5 C      6.1560     6.0000    -0.1560     3.9621     3.9620     0.0001
  6 C      6.3246     6.0000    -0.3246     4.0267     4.0261     0.0006
  7 C      6.1936     6.0000    -0.1936     3.9482     3.9332     0.0150
  8 C      5.6926     6.0000     0.3074     3.8516     3.8309     0.0207
  9 C      6.1911     6.0000    -0.1911     3.9469     3.9452     0.0017
 10 C      5.7411     6.0000     0.2589     3.8823     3.8562     0.0261
 11 H      0.9072     1.0000     0.0928     0.9844     0.9844     0.0000
 12 H      0.9040     1.0000     0.0960     0.9869     0.9869     0.0000
 13 H      0.8859     1.0000     0.1141     0.9696     0.9696     0.0000
 14 H      0.8825     1.0000     0.1175     0.9688     0.9688     0.0000
 15 H      0.9144     1.0000     0.0856     0.9980     0.9980     0.0000
 16 H      0.9024     1.0000     0.0976     0.9717     0.9716     0.0001
 17 H      0.9015     1.0000     0.0985     0.9917     0.9917     0.0000
 18 H      0.7958     1.0000     0.2042     0.9541     0.9541     0.0000
 19 H      0.7967     1.0000     0.2033     0.9544     0.9544     0.0000
 20 Cu    28.6744    29.0000     0.3256     1.2432     1.2400     0.0031

  Mayer bond orders larger than 0.100000
B(  0-O ,  8-C ) :   1.3636 B(  0-O , 20-Cu) :   0.5858 B(  1-O , 10-C ) :   1.3990 
B(  1-O , 20-Cu) :   0.5684 B(  2-N ,  5-C ) :   1.0620 B(  2-N , 18-H ) :   0.9371 
B(  2-N , 19-H ) :   0.9368 B(  3-C ,  4-C ) :   0.8874 B(  3-C ,  5-C ) :   0.9713 
B(  3-C , 11-H ) :   0.9473 B(  3-C , 12-H ) :   0.9495 B(  4-C ,  6-C ) :   1.4244 
B(  4-C ,  7-C ) :   1.1784 B(  5-C , 13-H ) :   0.9554 B(  5-C , 14-H ) :   0.9530 
B(  6-C ,  8-C ) :   1.3260 B(  6-C , 15-H ) :   0.9738 B(  7-C ,  9-C ) :   1.5240 
B(  7-C , 16-H ) :   0.9675 B(  8-C , 10-C ) :   1.0137 B(  9-C , 10-C ) :   1.2706 
B(  9-C , 17-H ) :   0.9623 

-------
TIMINGS
-------

Total SCF time: 0 days 0 hours 0 min 14 sec 

Total time                  ....      14.240 sec
Sum of individual times     ....      13.142 sec  ( 92.3%)

Fock matrix formation       ....       9.745 sec  ( 68.4%)
  Split-RI-J                ....       2.987 sec  ( 30.6% of F)
  XC integration            ....       6.471 sec  ( 66.4% of F)
    Basis function eval.    ....       0.724 sec  ( 11.2% of XC)
    Density eval.           ....       1.948 sec  ( 30.1% of XC)
    XC-Functional eval.     ....       0.083 sec  (  1.3% of XC)
    XC-Potential eval.      ....       1.037 sec  ( 16.0% of XC)
Diagonalization             ....       1.620 sec  ( 11.4%)
Density matrix formation    ....       0.100 sec  (  0.7%)
Population analysis         ....       0.132 sec  (  0.9%)
Initial guess               ....       0.203 sec  (  1.4%)
Orbital Transformation      ....       0.000 sec  (  0.0%)
Orbital Orthonormalization  ....       0.165 sec  (  1.2%)
DIIS solution               ....       0.704 sec  (  4.9%)
Grid generation             ....       0.638 sec  (  4.5%)

Maximum memory used throughout the entire SCF-calculation: 55.1 MB


-------------------------------------------------------------------------------
                          DFT DISPERSION CORRECTION                            
                                                                               
                              DFTD3 V3.1  Rev 1                                
                          USING Becke-Johnson damping                          
-------------------------------------------------------------------------------
The PBE functional is recognized
Active option DFTDOPT                   ...         4   

molecular C6(AA) [au] = 5973.617341 


            DFT-D V3
 parameters
 s6 scaling factor         :     1.0000 
 a1 scaling factor         :     0.4289 
 s8 scaling factor         :     0.7875 
 a2 scaling factor         :     4.4407 
 ad hoc parameters k1-k3   :    16.0000     1.3333    -4.0000 

 Edisp/kcal,au: -14.788122403666  -0.023566370609 
 E6   /kcal   : -10.237018304 
 E8   /kcal   :  -4.551104099 
 % E8         :  30.775401874 

-------------------------   ----------------
Dispersion correction           -0.023566371
-------------------------   ----------------


-------------------------   --------------------
FINAL SINGLE POINT ENERGY     -2155.354581431120
-------------------------   --------------------

                                *** OPTIMIZATION RUN DONE ***

                            ***************************************
                            *     ORCA property calculations      *
                            ***************************************

                                    ---------------------
                                    Active property flags
                                    ---------------------
   (+) Dipole Moment


------------------------------------------------------------------------------
                       ORCA ELECTRIC PROPERTIES CALCULATION
------------------------------------------------------------------------------

Dipole Moment Calculation                       ... on
Quadrupole Moment Calculation                   ... off
Polarizability Calculation                      ... off
GBWName                                         ... 5_M0005.gbw
Electron density                                ... 5_M0005.scfp
The origin for moment calculation is the CENTER OF MASS  = ( 2.474139, -0.673103  0.281923)

-------------
DIPOLE MOMENT
-------------
                                X             Y             Z
Electronic contribution:     42.99510      -9.79435       3.60317
Nuclear contribution   :    -42.92290       9.70926      -4.00348
                        -----------------------------------------
Total Dipole Moment    :      0.07221      -0.08509      -0.40031
                        -----------------------------------------
Magnitude (a.u.)       :      0.41557
Magnitude (Debye)      :      1.05631



--------------------
Rotational spectrum 
--------------------
 
Rotational constants in cm-1:     0.074337     0.009909     0.009046 
Rotational constants in MHz :  2228.553873   297.053411   271.187475 

 Dipole components along the rotational axes: 
x,y,z [a.u.] :    -0.061515    -0.052188    -0.407670 
x,y,z [Debye]:    -0.156359    -0.132650    -1.036215 

 
No protocol specified

Timings for individual modules:

Sum of individual times         ...      772.370 sec (=  12.873 min)
GTO integral calculation        ...       34.272 sec (=   0.571 min)   4.4 %
SCF iterations                  ...      610.788 sec (=  10.180 min)  79.1 %
SCF Gradient evaluation         ...      125.833 sec (=   2.097 min)  16.3 %
Geometry relaxation             ...        1.477 sec (=   0.025 min)   0.2 %



                             ****ORCA TERMINATED NORMALLY****
TOTAL RUN TIME: 0 days 0 hours 42 minutes 37 seconds 428 msec
