
                                 *****************
                                 * O   R   C   A *
                                 *****************

                                            #,                                       
                                            ###                                      
                                            ####                                     
                                            #####                                    
                                            ######                                   
                                           ########,                                 
                                     ,,################,,,,,                         
                               ,,#################################,,                 
                          ,,##########################################,,             
                       ,#########################################, ''#####,          
                    ,#############################################,,   '####,        
                  ,##################################################,,,,####,       
                ,###########''''           ''''###############################       
              ,#####''   ,,,,##########,,,,          '''####'''          '####       
            ,##' ,,,,###########################,,,                        '##       
           ' ,,###''''                  '''############,,,                           
         ,,##''                                '''############,,,,        ,,,,,,###''
      ,#''                                            '''#######################'''  
     '                                                          ''''####''''         
             ,#######,   #######,   ,#######,      ##                                
            ,#'     '#,  ##    ##  ,#'     '#,    #''#        ######   ,####,        
            ##       ##  ##   ,#'  ##            #'  '#       #        #'  '#        
            ##       ##  #######   ##           ,######,      #####,   #    #        
            '#,     ,#'  ##    ##  '#,     ,#' ,#      #,         ##   #,  ,#        
             '#######'   ##     ##  '#######'  #'      '#     #####' # '####'        



                  #######################################################
                  #                        -***-                        #
                  #          Department of theory and spectroscopy      #
                  #    Directorship and core code : Frank Neese         #
                  #        Max Planck Institute fuer Kohlenforschung    #
                  #                Kaiser Wilhelm Platz 1               #
                  #                 D-45470 Muelheim/Ruhr               #
                  #                      Germany                        #
                  #                                                     #
                  #                  All rights reserved                #
                  #                        -***-                        #
                  #######################################################


                         Program Version 5.0.1 -  RELEASE  -


 With contributions from (in alphabetic order):
   Daniel Aravena         : Magnetic Suceptibility
   Michael Atanasov       : Ab Initio Ligand Field Theory (pilot matlab implementation)
   Alexander A. Auer      : GIAO ZORA, VPT2 properties, NMR spectrum
   Ute Becker             : Parallelization
   Giovanni Bistoni       : ED, misc. LED, open-shell LED, HFLD
   Martin Brehm           : Molecular dynamics
   Dmytro Bykov           : SCF Hessian
   Vijay G. Chilkuri      : MRCI spin determinant printing, contributions to CSF-ICE
   Dipayan Datta          : RHF DLPNO-CCSD density
   Achintya Kumar Dutta   : EOM-CC, STEOM-CC
   Dmitry Ganyushin       : Spin-Orbit,Spin-Spin,Magnetic field MRCI
   Miquel Garcia          : C-PCM and meta-GGA Hessian, CC/C-PCM, Gaussian charge scheme
   Yang Guo               : DLPNO-NEVPT2, F12-NEVPT2, CIM, IAO-localization
   Andreas Hansen         : Spin unrestricted coupled pair/coupled cluster methods
   Benjamin Helmich-Paris : MC-RPA, TRAH-SCF, COSX integrals
   Lee Huntington         : MR-EOM, pCC
   Robert Izsak           : Overlap fitted RIJCOSX, COSX-SCS-MP3, EOM
   Marcus Kettner         : VPT2
   Christian Kollmar      : KDIIS, OOCD, Brueckner-CCSD(T), CCSD density, CASPT2, CASPT2-K
   Simone Kossmann        : Meta GGA functionals, TD-DFT gradient, OOMP2, MP2 Hessian
   Martin Krupicka        : Initial AUTO-CI
   Lucas Lang             : DCDCAS
   Marvin Lechner         : AUTO-CI (C++ implementation), FIC-MRCC
   Dagmar Lenk            : GEPOL surface, SMD
   Dimitrios Liakos       : Extrapolation schemes; Compound Job, initial MDCI parallelization
   Dimitrios Manganas     : Further ROCIS development; embedding schemes
   Dimitrios Pantazis     : SARC Basis sets
   Anastasios Papadopoulos: AUTO-CI, single reference methods and gradients
   Taras Petrenko         : DFT Hessian,TD-DFT gradient, ASA, ECA, R-Raman, ABS, FL, XAS/XES, NRVS
   Peter Pinski           : DLPNO-MP2, DLPNO-MP2 Gradient
   Christoph Reimann      : Effective Core Potentials
   Marius Retegan         : Local ZFS, SOC
   Christoph Riplinger    : Optimizer, TS searches, QM/MM, DLPNO-CCSD(T), (RO)-DLPNO pert. Triples
   Tobias Risthaus        : Range-separated hybrids, TD-DFT gradient, RPA, STAB
   Michael Roemelt        : Original ROCIS implementation
   Masaaki Saitow         : Open-shell DLPNO-CCSD energy and density
   Barbara Sandhoefer     : DKH picture change effects
   Avijit Sen             : IP-ROCIS
   Kantharuban Sivalingam : CASSCF convergence, NEVPT2, FIC-MRCI
   Bernardo de Souza      : ESD, SOC TD-DFT
   Georgi Stoychev        : AutoAux, RI-MP2 NMR, DLPNO-MP2 response
   Willem Van den Heuvel  : Paramagnetic NMR
   Boris Wezisla          : Elementary symmetry handling
   Frank Wennmohs         : Technical directorship


 We gratefully acknowledge several colleagues who have allowed us to
 interface, adapt or use parts of their codes:
   Stefan Grimme, W. Hujo, H. Kruse, P. Pracht,  : VdW corrections, initial TS optimization,
                  C. Bannwarth, S. Ehlert          DFT functionals, gCP, sTDA/sTD-DF
   Ed Valeev, F. Pavosevic, A. Kumar             : LibInt (2-el integral package), F12 methods
   Garnet Chan, S. Sharma, J. Yang, R. Olivares  : DMRG
   Ulf Ekstrom                                   : XCFun DFT Library
   Mihaly Kallay                                 : mrcc  (arbitrary order and MRCC methods)
   Jiri Pittner, Ondrej Demel                    : Mk-CCSD
   Frank Weinhold                                : gennbo (NPA and NBO analysis)
   Christopher J. Cramer and Donald G. Truhlar   : smd solvation model
   Lars Goerigk                                  : TD-DFT with DH, B97 family of functionals
   V. Asgeirsson, H. Jonsson                     : NEB implementation
   FAccTs GmbH                                   : IRC, NEB, NEB-TS, DLPNO-Multilevel, CI-OPT
                                                   MM, QMMM, 2- and 3-layer-ONIOM, Crystal-QMMM,
                                                   LR-CPCM, SF, NACMEs, symmetry and pop. for TD-DFT,
                                                   nearIR, NL-DFT gradient (VV10), updates on ESD,
                                                   ML-optimized integration grids
   S Lehtola, MJT Oliveira, MAL Marques          : LibXC Library
   Liviu Ungur et al                             : ANISO software


 Your calculation uses the libint2 library for the computation of 2-el integrals
 For citations please refer to: http://libint.valeyev.net

 Your ORCA version has been built with support for libXC version: 5.1.0
 For citations please refer to: https://tddft.org/programs/libxc/

 This ORCA versions uses:
   CBLAS   interface :  Fast vector & matrix operations
   LAPACKE interface :  Fast linear algebra routines
   SCALAPACK package :  Parallel linear algebra routines
   Shared memory     :  Shared parallel matrices
   BLAS/LAPACK       :  OpenBLAS 0.3.15  USE64BITINT DYNAMIC_ARCH NO_AFFINITY Haswell SINGLE_THREADED
        Core in use  :  Haswell
   Copyright (c) 2011-2014, The OpenBLAS Project


Your calculation utilizes the atom-pairwise dispersion correction
with the Becke-Johnson damping scheme (D3BJ)
Cite in your paper:
S.Grimme, S.Ehrlich, L.Goerigk, J Comput Chem, (2011), 32, 1456–1465 
S.Grimme, J.Antony, S.Ehrlich and H.Krieg, J.Chem.Phys., 132, (2010), 154104 
   

================================================================================

----- Orbital basis set information -----
Your calculation utilizes the basis: def2-TZVP
   F. Weigend and R. Ahlrichs, Phys. Chem. Chem. Phys. 7, 3297 (2005).

----- AuxJ basis set information -----
Your calculation utilizes the auxiliary basis: def2/J
   F. Weigend, Phys. Chem. Chem. Phys. 8, 1057 (2006).

================================================================================
                                        WARNINGS
                       Please study these warnings very carefully!
================================================================================


WARNING: The environment variable RSH_COMMAND is not set!
  ===> : All Displacements for the Numerical Hessian calculation
         will be started on localhost

WARNING: Geometry Optimization
  ===> : Switching off AutoStart
         For restart on a previous wavefunction, please use MOREAD

INFO   : the flag for use of the SHARK integral package has been found!

================================================================================
                                       INPUT FILE
================================================================================
NAME = ex.inp
|  1> ! PBE D3 def2-TZVP opt numfreq
|  2> 
|  3> %base "M0001"
|  4> %pal nprocs=8 end
|  5> %geom maxiter=75 end
|  6> * xyz 0 1
|  7>   O   2.73552577528008     -2.10776859658788      0.20248935427753
|  8>   C   1.96128668878162     -1.01114349790436     -0.06119586119822
|  9>   C   0.67447775809354     -1.11688927530878     -0.56004624403681
| 10>   C   -0.10610921099939      0.02641099326058     -0.87616907966546
| 11>   C   -1.59060324368833     -0.09110206341328     -1.04116939790426
| 12>   C   -2.22310530168656     -0.30886029457784      0.36329441537577
| 13>   N   -1.51994510643502      0.62382307592026      1.31668556574530
| 14>   H   -1.30963755640164      0.20211997718824      2.22536433095195
| 15>   H   -0.57596198397013      0.85951707424502      0.78004190792168
| 16>   H   -2.03466869609033      1.49729032465367      1.46666957062342
| 17>   C   0.48341636773963      1.29225051191440     -0.63466341958741
| 18>   C   1.77373017477284      1.41738187144994     -0.11523562172275
| 19>   C   2.59764292184159      0.28567239275175      0.24406320417292
| 20>   O   3.73940768593165      0.36510794159604      0.74940663174559
| 21>   H   2.24814832080573     -2.89597563920881     -0.09755655649301
| 22>   H   0.24843414436268     -2.11612689856328     -0.72906648512460
| 23>   H   -2.01005169446634      0.82071963039015     -1.49681258941215
| 24>   H   -1.89460775280775     -0.94177578614304     -1.67042772450063
| 25>   H   -3.30547915825697     -0.12450452174904      0.41207000526241
| 26>   H   -2.01193404596566     -1.32706964463301      0.70947121530962
| 27>   H   -0.07432650039287      2.19432231231504     -0.91906863666782
| 28>   H   2.22012741355163      2.40409011240423      0.02343641492693
| 29> *
| 30> 
| 31>                          ****END OF INPUT****
================================================================================

                       *****************************
                       * Geometry Optimization Run *
                       *****************************

Geometry optimization settings:
Update method            Update   .... BFGS
Choice of coordinates    CoordSys .... Z-matrix Internals
Initial Hessian          InHess   .... Almoef's Model

Convergence Tolerances:
Energy Change            TolE     ....  5.0000e-06 Eh
Max. Gradient            TolMAXG  ....  3.0000e-04 Eh/bohr
RMS Gradient             TolRMSG  ....  1.0000e-04 Eh/bohr
Max. Displacement        TolMAXD  ....  4.0000e-03 bohr
RMS Displacement         TolRMSD  ....  2.0000e-03 bohr
Strict Convergence                ....  False
------------------------------------------------------------------------------
                        ORCA OPTIMIZATION COORDINATE SETUP
------------------------------------------------------------------------------

The optimization will be done in new redundant internal coordinates
Making redundant internal coordinates   ...  (new redundants) done
Evaluating the initial hessian          ...  (Almloef) done
Evaluating the coordinates              ...  done
Calculating the B-matrix                .... done
Calculating the G-matrix                .... done
Diagonalizing the G-matrix              .... done
Small eigenvalue found = 1.240e-02
The first mode is                       ....   49
The number of degrees of freedom        ....   60

    -----------------------------------------------------------------
                    Redundant Internal Coordinates


    -----------------------------------------------------------------
         Definition                    Initial Value    Approx d2E/dq
    -----------------------------------------------------------------
      1. B(C   1,O   0)                  1.3681         0.606589   
      2. B(C   2,C   1)                  1.3842         0.638335   
      3. B(C   3,C   2)                  1.4200         0.559608   
      4. B(C   4,C   3)                  1.4983         0.419788   
      5. B(C   5,C   4)                  1.5556         0.340001   
      6. B(N   6,C   5)                  1.5077         0.363099   
      7. B(H   7,N   6)                  1.0236         0.411618   
      8. B(H   8,N   6)                  1.1111         0.298418   
      9. B(H   9,N   6)                  1.0249         0.409688   
     10. B(C  10,C   3)                  1.4171         0.565559   
     11. B(C  11,C  10)                  1.3966         0.609925   
     12. B(C  12,C  11)                  1.4452         0.510059   
     13. B(C  12,C   1)                  1.4764         0.454815   
     14. B(O  13,C  12)                  1.2511         0.932062   
     15. B(H  14,O   0)                  0.9741         0.493743   
     16. B(H  15,C   2)                  1.0993         0.347949   
     17. B(H  16,C   4)                  1.1023         0.344247   
     18. B(H  17,C   4)                  1.1009         0.345937   
     19. B(H  18,C   5)                  1.0990         0.348332   
     20. B(H  19,C   5)                  1.0960         0.352270   
     21. B(H  20,C  10)                  1.0980         0.349617   
     22. B(H  21,C  11)                  1.0918         0.357687   
     23. A(C   1,O   0,H  14)          107.8242         0.365472   
     24. A(C   2,C   1,C  12)          122.8410         0.412826   
     25. A(O   0,C   1,C  12)          114.8535         0.406475   
     26. A(O   0,C   1,C   2)          122.3007         0.431791   
     27. A(C   1,C   2,C   3)          121.9899         0.428385   
     28. A(C   1,C   2,H  15)          119.0214         0.352600   
     29. A(C   3,C   2,H  15)          118.9839         0.344862   
     30. A(C   2,C   3,C  10)          116.9090         0.419213   
     31. A(C   2,C   3,C   4)          120.3998         0.397671   
     32. A(C   4,C   3,C  10)          120.0671         0.398411   
     33. A(C   3,C   4,H  17)          113.4003         0.328429   
     34. A(C   5,C   4,H  16)          109.5287         0.317021   
     35. A(C   3,C   4,H  16)          110.9580         0.328164   
     36. A(H  16,C   4,H  17)          107.3281         0.286987   
     37. A(C   5,C   4,H  17)          107.1932         0.317274   
     38. A(C   3,C   4,C   5)          108.3250         0.364750   
     39. A(N   6,C   5,H  18)          109.1150         0.319148   
     40. A(C   4,C   5,H  18)          114.6458         0.317630   
     41. A(C   4,C   5,N   6)          107.1379         0.353647   
     42. A(C   4,C   5,H  19)          109.6864         0.318213   
     43. A(H  18,C   5,H  19)          109.3644         0.288333   
     44. A(N   6,C   5,H  19)          106.5656         0.319734   
     45. A(C   5,N   6,H   8)          102.8282         0.308641   
     46. A(C   5,N   6,H   7)          113.7225         0.325225   
     47. A(H   8,N   6,H   9)          108.4556         0.283553   
     48. A(H   7,N   6,H   9)          108.9286         0.298243   
     49. A(C   5,N   6,H   9)          112.6761         0.324974   
     50. A(H   7,N   6,H   8)          109.9732         0.283760   
     51. A(C   3,C  10,C  11)          121.8554         0.425711   
     52. A(C  11,C  10,H  20)          119.4739         0.350180   
     53. A(C   3,C  10,H  20)          118.5798         0.345753   
     54. A(C  12,C  11,H  21)          116.2962         0.341119   
     55. A(C  10,C  11,H  21)          120.3951         0.351532   
     56. A(C  10,C  11,C  12)          123.3001         0.417931   
     57. A(C  11,C  12,O  13)          124.8171         0.448088   
     58. A(C   1,C  12,O  13)          122.1821         0.438891   
     59. A(C   1,C  12,C  11)          112.9970         0.396794   
     60. D(C   2,C   1,O   0,H  14)      5.0551         0.026913   
     61. D(C  12,C   1,O   0,H  14)   -175.7212         0.026913   
     62. D(C   3,C   2,C   1,O   0)   -177.7158         0.028301   
     63. D(C   3,C   2,C   1,C  12)      3.1226         0.028301   
     64. D(H  15,C   2,C   1,O   0)      1.4702         0.028301   
     65. D(H  15,C   2,C   1,C  12)   -177.6914         0.028301   
     66. D(C   4,C   3,C   2,C   1)   -162.7765         0.021450   
     67. D(C  10,C   3,C   2,H  15)    179.6897         0.021450   
     68. D(C  10,C   3,C   2,C   1)     -1.1240         0.021450   
     69. D(C   4,C   3,C   2,H  15)     18.0372         0.021450   
     70. D(H  16,C   4,C   3,C  10)     31.4609         0.013031   
     71. D(H  16,C   4,C   3,C   2)   -167.4648         0.013031   
     72. D(H  17,C   4,C   3,C   2)    -46.5824         0.013031   
     73. D(C   5,C   4,C   3,C   2)     72.2741         0.013031   
     74. D(C   5,C   4,C   3,C  10)    -88.8002         0.013031   
     75. D(H  17,C   4,C   3,C  10)    152.3432         0.013031   
     76. D(H  19,C   5,C   4,H  17)     49.5392         0.009360   
     77. D(H  19,C   5,C   4,H  16)    165.6783         0.009360   
     78. D(H  18,C   5,C   4,H  17)    -73.9381         0.009360   
     79. D(H  18,C   5,C   4,H  16)     42.2009         0.009360   
     80. D(H  18,C   5,C   4,C   3)    163.3497         0.009360   
     81. D(H  19,C   5,C   4,C   3)    -73.1730         0.009360   
     82. D(N   6,C   5,C   4,H  17)    164.8298         0.009360   
     83. D(N   6,C   5,C   4,H  16)    -79.0311         0.009360   
     84. D(N   6,C   5,C   4,C   3)     42.1176         0.009360   
     85. D(H   8,N   6,C   5,H  18)   -144.4776         0.012111   
     86. D(H   8,N   6,C   5,C   4)    -19.8166         0.012111   
     87. D(H   7,N   6,C   5,H  19)    -21.3241         0.012111   
     88. D(H   7,N   6,C   5,H  18)     96.6591         0.012111   
     89. D(H   8,N   6,C   5,H  19)     97.5393         0.012111   
     90. D(H   7,N   6,C   5,C   4)   -138.6799         0.012111   
     91. D(H   9,N   6,C   5,H  19)   -145.9083         0.012111   
     92. D(H   9,N   6,C   5,H  18)    -27.9252         0.012111   
     93. D(H   9,N   6,C   5,C   4)     96.7358         0.012111   
     94. D(H  20,C  10,C   3,C   4)    -21.5125         0.021927   
     95. D(H  20,C  10,C   3,C   2)    176.7708         0.021927   
     96. D(C  11,C  10,C   3,C   4)    161.9733         0.021927   
     97. D(C  11,C  10,C   3,C   2)      0.2566         0.021927   
     98. D(H  21,C  11,C  10,H  20)      1.0151         0.025692   
     99. D(H  21,C  11,C  10,C   3)    177.4989         0.025692   
    100. D(C  12,C  11,C  10,H  20)   -177.8843         0.025692   
    101. D(C  12,C  11,C  10,C   3)     -1.4005         0.025692   
    102. D(O  13,C  12,C  11,H  21)      3.3859         0.017730   
    103. D(O  13,C  12,C  11,C  10)   -177.6730         0.017730   
    104. D(C   1,C  12,C  11,H  21)   -175.9217         0.017730   
    105. D(C   1,C  12,C  11,C  10)      3.0194         0.017730   
    106. D(O  13,C  12,C   1,C   2)    176.7988         0.014096   
    107. D(O  13,C  12,C   1,O   0)     -2.4203         0.014096   
    108. D(C  11,C  12,C   1,C   2)     -3.8729         0.014096   
    109. D(C  11,C  12,C   1,O   0)    176.9081         0.014096   
    -----------------------------------------------------------------

Number of atoms                         .... 22
Number of degrees of freedom            .... 109

         *************************************************************
         *                GEOMETRY OPTIMIZATION CYCLE   1            *
         *************************************************************
---------------------------------
CARTESIAN COORDINATES (ANGSTROEM)
---------------------------------
  O      2.735526   -2.107769    0.202489
  C      1.961287   -1.011143   -0.061196
  C      0.674478   -1.116889   -0.560046
  C     -0.106109    0.026411   -0.876169
  C     -1.590603   -0.091102   -1.041169
  C     -2.223105   -0.308860    0.363294
  N     -1.519945    0.623823    1.316686
  H     -1.309638    0.202120    2.225364
  H     -0.575962    0.859517    0.780042
  H     -2.034669    1.497290    1.466670
  C      0.483416    1.292251   -0.634663
  C      1.773730    1.417382   -0.115236
  C      2.597643    0.285672    0.244063
  O      3.739408    0.365108    0.749407
  H      2.248148   -2.895976   -0.097557
  H      0.248434   -2.116127   -0.729066
  H     -2.010052    0.820720   -1.496813
  H     -1.894608   -0.941776   -1.670428
  H     -3.305479   -0.124505    0.412070
  H     -2.011934   -1.327070    0.709471
  H     -0.074327    2.194322   -0.919069
  H      2.220127    2.404090    0.023436

----------------------------
CARTESIAN COORDINATES (A.U.)
----------------------------
  NO LB      ZA    FRAG     MASS         X           Y           Z
   0 O     8.0000    0    15.999    5.169395   -3.983105    0.382649
   1 C     6.0000    0    12.011    3.706295   -1.910784   -0.115643
   2 C     6.0000    0    12.011    1.274578   -2.110615   -1.058334
   3 C     6.0000    0    12.011   -0.200517    0.049910   -1.655720
   4 C     6.0000    0    12.011   -3.005805   -0.172158   -1.967525
   5 C     6.0000    0    12.011   -4.201060   -0.583661    0.686527
   6 N     7.0000    0    14.007   -2.872280    1.178855    2.488175
   7 H     1.0000    0     1.008   -2.474856    0.381951    4.205329
   8 H     1.0000    0     1.008   -1.088410    1.624252    1.474066
   9 H     1.0000    0     1.008   -3.844967    2.829469    2.771604
  10 C     6.0000    0    12.011    0.913525    2.442000   -1.199340
  11 C     6.0000    0    12.011    3.351864    2.678464   -0.217764
  12 C     6.0000    0    12.011    4.908834    0.539843    0.461213
  13 O     8.0000    0    15.999    7.066456    0.689954    1.416173
  14 H     1.0000    0     1.008    4.248385   -5.472601   -0.184355
  15 H     1.0000    0     1.008    0.469472   -3.998900   -1.377736
  16 H     1.0000    0     1.008   -3.798447    1.550935   -2.828566
  17 H     1.0000    0     1.008   -3.580290   -1.779698   -3.156651
  18 H     1.0000    0     1.008   -6.246450   -0.235279    0.778699
  19 H     1.0000    0     1.008   -3.802004   -2.507798    1.340706
  20 H     1.0000    0     1.008   -0.140457    4.146668   -1.736788
  21 H     1.0000    0     1.008    4.195433    4.543072    0.044288

--------------------------------
INTERNAL COORDINATES (ANGSTROEM)
--------------------------------
 O      0   0   0     0.000000000000     0.00000000     0.00000000
 C      1   0   0     1.368050679977     0.00000000     0.00000000
 C      2   1   0     1.384164404251   122.30072989     0.00000000
 C      3   2   1     1.419994777326   121.98987721   182.28422694
 C      4   3   2     1.498251299548   120.39978015   197.22350967
 C      5   4   3     1.555633666203   108.32502154    72.27414174
 N      6   5   4     1.507742423424   107.13792004    42.11762564
 H      7   6   5     1.023601420192   113.72245341   221.32006041
 H      7   6   5     1.111144550375   102.82817572   340.18337026
 H      7   6   5     1.024880778470   112.67608574    96.73579680
 C      4   3   2     1.417115054900   116.90896168   358.87600984
 C     11   4   3     1.396557487164   121.85536706     0.25661257
 C     12  11   4     1.445231540359   123.30013006   358.59949405
 O     13  12  11     1.251123000639   124.81709875   182.32701127
 H      1   2   3     0.974081451285   107.82420242     5.05509511
 H      3   2   1     1.099343818114   119.02136372     1.47023845
 H      5   4   3     1.102255198272   110.95802706   192.53523640
 H      5   4   3     1.100922597506   113.40026210   313.41761155
 H      6   5   4     1.099044709978   114.64580084   163.34966629
 H      6   5   4     1.095984469139   109.68641255   286.82699499
 H     11   4   3     1.098042334126   118.57984629   176.77080090
 H     12  11   4     1.091830381197   120.39514349   177.49891129

---------------------------
INTERNAL COORDINATES (A.U.)
---------------------------
 O      0   0   0     0.000000000000     0.00000000     0.00000000
 C      1   0   0     2.585241122481     0.00000000     0.00000000
 C      2   1   0     2.615691648357   122.30072989     0.00000000
 C      3   2   1     2.683401240745   121.98987721   182.28422694
 C      4   3   2     2.831284635937   120.39978015   197.22350967
 C      5   4   3     2.939721593832   108.32502154    72.27414174
 N      6   5   4     2.849220260766   107.13792004    42.11762564
 H      7   6   5     1.934326354455   113.72245341   221.32006041
 H      7   6   5     2.099758895407   102.82817572   340.18337026
 H      7   6   5     1.936743991228   112.67608574    96.73579680
 C      4   3   2     2.677959354017   116.90896168   358.87600984
 C     11   4   3     2.639111181018   121.85536706     0.25661257
 C     12  11   4     2.731091811383   123.30013006   358.59949405
 O     13  12  11     2.364279831058   124.81709875   182.32701127
 H      1   2   3     1.840747175061   107.82420242     5.05509511
 H      3   2   1     2.077458743255   119.02136372     1.47023845
 H      5   4   3     2.082960454426   110.95802706   192.53523640
 H      5   4   3     2.080442203931   113.40026210   313.41761155
 H      6   5   4     2.076893510794   114.64580084   163.34966629
 H      6   5   4     2.071110493705   109.68641255   286.82699499
 H     11   4   3     2.074999294950   118.57984629   176.77080090
 H     12  11   4     2.063260405157   120.39514349   177.49891129

---------------------
BASIS SET INFORMATION
---------------------
There are 4 groups of distinct atoms

 Group   1 Type O   : 11s6p2d1f contracted to 5s3p2d1f pattern {62111/411/11/1}
 Group   2 Type C   : 11s6p2d1f contracted to 5s3p2d1f pattern {62111/411/11/1}
 Group   3 Type N   : 11s6p2d1f contracted to 5s3p2d1f pattern {62111/411/11/1}
 Group   4 Type H   : 5s1p contracted to 3s1p pattern {311/1}

Atom   0O    basis set group =>   1
Atom   1C    basis set group =>   2
Atom   2C    basis set group =>   2
Atom   3C    basis set group =>   2
Atom   4C    basis set group =>   2
Atom   5C    basis set group =>   2
Atom   6N    basis set group =>   3
Atom   7H    basis set group =>   4
Atom   8H    basis set group =>   4
Atom   9H    basis set group =>   4
Atom  10C    basis set group =>   2
Atom  11C    basis set group =>   2
Atom  12C    basis set group =>   2
Atom  13O    basis set group =>   1
Atom  14H    basis set group =>   4
Atom  15H    basis set group =>   4
Atom  16H    basis set group =>   4
Atom  17H    basis set group =>   4
Atom  18H    basis set group =>   4
Atom  19H    basis set group =>   4
Atom  20H    basis set group =>   4
Atom  21H    basis set group =>   4
---------------------------------
AUXILIARY/J BASIS SET INFORMATION
---------------------------------
There are 4 groups of distinct atoms

 Group   1 Type O   : 12s5p4d2f1g contracted to 6s4p3d1f1g pattern {711111/2111/211/2/1}
 Group   2 Type C   : 12s5p4d2f1g contracted to 6s4p3d1f1g pattern {711111/2111/211/2/1}
 Group   3 Type N   : 12s5p4d2f1g contracted to 6s4p3d1f1g pattern {711111/2111/211/2/1}
 Group   4 Type H   : 5s2p1d contracted to 3s1p1d pattern {311/2/1}

Atom   0O    basis set group =>   1
Atom   1C    basis set group =>   2
Atom   2C    basis set group =>   2
Atom   3C    basis set group =>   2
Atom   4C    basis set group =>   2
Atom   5C    basis set group =>   2
Atom   6N    basis set group =>   3
Atom   7H    basis set group =>   4
Atom   8H    basis set group =>   4
Atom   9H    basis set group =>   4
Atom  10C    basis set group =>   2
Atom  11C    basis set group =>   2
Atom  12C    basis set group =>   2
Atom  13O    basis set group =>   1
Atom  14H    basis set group =>   4
Atom  15H    basis set group =>   4
Atom  16H    basis set group =>   4
Atom  17H    basis set group =>   4
Atom  18H    basis set group =>   4
Atom  19H    basis set group =>   4
Atom  20H    basis set group =>   4
Atom  21H    basis set group =>   4


           ************************************************************
           *        Program running with 8 parallel MPI-processes     *
           *              working on a common directory               *
           ************************************************************
------------------------------------------------------------------------------
                           ORCA GTO INTEGRAL CALCULATION
                           -- RI-GTO INTEGRALS CHOSEN --
------------------------------------------------------------------------------
------------------------------------------------------------------------------
                   ___                                                        
                  /   \      - P O W E R E D   B Y -                         
                 /     \                                                     
                 |  |  |   _    _      __       _____    __    __             
                 |  |  |  | |  | |    /  \     |  _  \  |  |  /  |          
                  \  \/   | |  | |   /    \    | | | |  |  | /  /          
                 / \  \   | |__| |  /  /\  \   | |_| |  |  |/  /          
                |  |  |   |  __  | /  /__\  \  |    /   |      \           
                |  |  |   | |  | | |   __   |  |    \   |  |\   \          
                \     /   | |  | | |  |  |  |  | |\  \  |  | \   \       
                 \___/    |_|  |_| |__|  |__|  |_| \__\ |__|  \__/        
                                                                              
                      - O R C A' S   B I G   F R I E N D -                    
                                      &                                       
                       - I N T E G R A L  F E E D E R -                       
                                                                              
 v1 FN, 2020, v2 2021                                                         
------------------------------------------------------------------------------


Reading SHARK input file M0001.SHARKINP.tmp ... ok
----------------------
SHARK INTEGRAL PACKAGE
----------------------

Number of atoms                             ...     22
Number of basis functions                   ...    407
Number of shells                            ...    165
Maximum angular momentum                    ...      3
Integral batch strategy                     ... SHARK/LIBINT Hybrid
RI-J (if used) integral strategy            ... SPLIT-RIJ (Revised 2003 algorithm where possible)
Printlevel                                  ...      1
Contraction scheme used                     ... SEGMENTED contraction
Coulomb Range Separation                    ... NOT USED
Exchange Range Separation                   ... NOT USED
Finite Nucleus Model                        ... NOT USED
Auxiliary Coulomb fitting basis             ... AVAILABLE
   # of basis functions in Aux-J            ...    660
   # of shells in Aux-J                     ...    220
   Maximum angular momentum in Aux-J        ...      4
Auxiliary J/K fitting basis                 ... NOT available
Auxiliary Correlation fitting basis         ... NOT available
Auxiliary 'external' fitting basis          ... NOT available
Integral threshold                          ...     2.500000e-11
Primitive cut-off                           ...     2.500000e-12
Primitive pair pre-selection threshold      ...     2.500000e-12

Calculating pre-screening integrals         ... done (  0.2 sec) Dimension = 165
Organizing shell pair data                  ... done (  0.2 sec)
Shell pair information
Total number of shell pairs                 ...     13695
Shell pairs after pre-screening             ...     11956
Total number of primitive shell pairs       ...     41316
Primitive shell pairs kept                  ...     26149
          la=0 lb=0:   3301 shell pairs
          la=1 lb=0:   3427 shell pairs
          la=1 lb=1:    912 shell pairs
          la=2 lb=0:   1677 shell pairs
          la=2 lb=1:    878 shell pairs
          la=2 lb=2:    226 shell pairs
          la=3 lb=0:    823 shell pairs
          la=3 lb=1:    436 shell pairs
          la=3 lb=2:    216 shell pairs
          la=3 lb=3:     60 shell pairs

Calculating one electron integrals          ... done (  0.0 sec)
Calculating RI/J V-Matrix + Cholesky decomp.... done (  0.0 sec)
Calculating Nuclear repulsion               ... done (  0.0 sec) ENN=    613.978357757015 Eh

SHARK setup successfully completed in   0.5 seconds

Maximum memory used throughout the entire GTOINT-calculation: 20.4 MB


           ************************************************************
           *        Program running with 8 parallel MPI-processes     *
           *              working on a common directory               *
           ************************************************************
-------------------------------------------------------------------------------
                                 ORCA SCF
-------------------------------------------------------------------------------

------------
SCF SETTINGS
------------
Hamiltonian:
 Density Functional     Method          .... DFT(GTOs)
 Exchange Functional    Exchange        .... PBE
   PBE kappa parameter   XKappa         ....  0.804000
   PBE mue parameter    XMuePBE         ....  0.219520
 Correlation Functional Correlation     .... PBE
   PBE beta parameter  CBetaPBE         ....  0.066725
 LDA part of GGA corr.  LDAOpt          .... PW91-LDA
 Gradients option       PostSCFGGA      .... off
   Density functional embedding theory  .... OFF
   NL short-range parameter             ....  6.400000
 RI-approximation to the Coulomb term is turned on
   Number of AuxJ basis functions       .... 660


General Settings:
 Integral files         IntName         .... M0001
 Hartree-Fock type      HFTyp           .... RHF
 Total Charge           Charge          ....    0
 Multiplicity           Mult            ....    1
 Number of Electrons    NEL             ....   82
 Basis Dimension        Dim             ....  407
 Nuclear Repulsion      ENuc            ....    613.9783577570 Eh

Convergence Acceleration:
 DIIS                   CNVDIIS         .... on
   Start iteration      DIISMaxIt       ....    12
   Startup error        DIISStart       ....  0.200000
   # of expansion vecs  DIISMaxEq       ....     5
   Bias factor          DIISBfac        ....   1.050
   Max. coefficient     DIISMaxC        ....  10.000
 Trust-Rad. Augm. Hess. CNVTRAH         .... auto
   Auto Start mean grad. ratio tolernc. ....  1.125000
   Auto Start start iteration           ....    20
   Auto Start num. interpolation iter.  ....    10
   Max. Number of Micro iterations      ....    16
   Max. Number of Macro iterations      .... Maxiter - #DIIS iter
   Number of Davidson start vectors     ....     2
   Converg. threshold I  (grad. norm)   ....   1.000e-05
   Converg. threshold II (energy diff.) ....   1.000e-08
   Grad. Scal. Fac. for Micro threshold ....   0.100
   Minimum threshold for Micro iter.    ....   0.010
   NR start threshold (gradient norm)   ....   0.001
   Initial trust radius                 ....   0.400
   Minimum AH scaling param. (alpha)    ....   1.000
   Maximum AH scaling param. (alpha)    .... 1000.000
   Orbital update algorithm             .... Taylor
   White noise on init. David. guess    .... on
   Maximum white noise                  ....   0.010
   Quad. conv. algorithm                .... NR
 SOSCF                  CNVSOSCF        .... on
   Start iteration      SOSCFMaxIt      ....   150
   Startup grad/error   SOSCFStart      ....  0.003300
 Level Shifting         CNVShift        .... on
   Level shift para.    LevelShift      ....    0.2500
   Turn off err/grad.   ShiftErr        ....    0.0010
 Zerner damping         CNVZerner       .... off
 Static damping         CNVDamp         .... on
   Fraction old density DampFac         ....    0.7000
   Max. Damping (<1)    DampMax         ....    0.9800
   Min. Damping (>=0)   DampMin         ....    0.0000
   Turn off err/grad.   DampErr         ....    0.1000
 Fernandez-Rico         CNVRico         .... off

SCF Procedure:
 Maximum # iterations   MaxIter         ....   125
 SCF integral mode      SCFMode         .... Direct
   Integral package                     .... SHARK and LIBINT hybrid scheme
 Reset frequency        DirectResetFreq ....    20
 Integral Threshold     Thresh          ....  2.500e-11 Eh
 Primitive CutOff       TCut            ....  2.500e-12 Eh

Convergence Tolerance:
 Convergence Check Mode ConvCheckMode   .... Total+1el-Energy
 Convergence forced     ConvForced      .... 0
 Energy Change          TolE            ....  1.000e-08 Eh
 1-El. energy change                    ....  1.000e-05 Eh
 Orbital Gradient       TolG            ....  1.000e-05
 Orbital Rotation angle TolX            ....  1.000e-05
 DIIS Error             TolErr          ....  5.000e-07


Diagonalization of the overlap matrix:
Smallest eigenvalue                        ... 1.171e-05
Time for diagonalization                   ...    0.048 sec
Threshold for overlap eigenvalues          ... 1.000e-08
Number of eigenvalues below threshold      ... 0
Time for construction of square roots      ...    0.029 sec
Total time needed                          ...    0.078 sec

Time for model grid setup =    0.205 sec

------------------------------
INITIAL GUESS: MODEL POTENTIAL
------------------------------
Loading Hartree-Fock densities                     ... done
Calculating cut-offs                               ... done
Initializing the effective Hamiltonian             ... done
Setting up the integral package (SHARK)            ... done
Starting the Coulomb interaction                   ... done (   0.3 sec)
Reading the grid                                   ... done
Mapping shells                                     ... done
Starting the XC term evaluation                    ... done (   0.2 sec)
  promolecular density results
     # of electrons  =     81.995711434
     EX              =    -67.012330306
     EC              =     -2.742465622
     EX+EC           =    -69.754795928
Transforming the Hamiltonian                       ... done (   0.0 sec)
Diagonalizing the Hamiltonian                      ... done (   0.0 sec)
Back transforming the eigenvectors                 ... done (   0.0 sec)
Now organizing SCF variables                       ... done
                      ------------------
                      INITIAL GUESS DONE (   0.8 sec)
                      ------------------
-------------------
DFT GRID GENERATION
-------------------

General Integration Accuracy     IntAcc      ... 4.388
Radial Grid Type                 RadialGrid  ... OptM3 with GC (2021)
Angular Grid (max. ang.)         AngularGrid ... 4 (Lebedev-302)
Angular grid pruning method      GridPruning ... 4 (adaptive)
Weight generation scheme         WeightScheme... Becke
Basis function cutoff            BFCut       ... 1.0000e-11
Integration weight cutoff        WCut        ... 1.0000e-14
Angular grids for H and He will be reduced by one unit
Partially contracted basis set               ... off
Rotationally invariant grid construction     ... off

Total number of grid points                  ...   101053
Total number of batches                      ...     1590
Average number of points per batch           ...       63
Average number of grid points per atom       ...     4593
Time for grid setup =    0.954 sec

--------------
SCF ITERATIONS
--------------
ITER       Energy         Delta-E        Max-DP      RMS-DP      [F,P]     Damp
               ***  Starting incremental Fock matrix formation  ***
  0   -515.8102767137   0.000000000000 1.24929591  0.00848779  0.3239759 0.7000
  1   -515.9934077483  -0.183131034599 0.72548544  0.00518649  0.0786487 0.7000
                               ***Turning on DIIS***
  2   -516.0493808230  -0.055973074716 0.37712666  0.00347974  0.0350763 0.0000
  3   -516.1432997826  -0.093918959595 0.74830066  0.00518280  0.0542179 0.0000
  4   -516.1690285866  -0.025728803994 0.08657986  0.00086401  0.0437269 0.0000
  5   -516.1733237639  -0.004295177330 0.04796395  0.00043240  0.0045168 0.0000
                      *** Initiating the SOSCF procedure ***
                           *** Shutting down DIIS ***
                      *** Re-Reading the Fockian *** 
                      *** Removing any level shift *** 
ITER      Energy       Delta-E        Grad      Rot      Max-DP    RMS-DP
  6   -516.17366530  -0.0003415312  0.001824  0.001824  0.026325  0.000214
               *** Restarting incremental Fock matrix formation ***
  7   -516.17374413  -0.0000788316  0.001346  0.018575  0.039178  0.000426
  8   -516.17379047  -0.0000463409  0.001228  0.012618  0.027723  0.000316
  9   -516.17374505   0.0000454168  0.001954  0.011860  0.027772  0.000277
 10   -516.17381822  -0.0000731680  0.000212  0.002056  0.004828  0.000054
 11   -516.17380827   0.0000099477  0.000582  0.001939  0.005206  0.000048
 12   -516.17382057  -0.0000122992  0.000086  0.000470  0.002354  0.000020
 13   -516.17381928   0.0000012907  0.000132  0.000343  0.001812  0.000016
 14   -516.17382099  -0.0000017082  0.000010  0.000044  0.000421  0.000004
 15   -516.17382096   0.0000000299  0.000025  0.000046  0.000322  0.000002
 16   -516.17382101  -0.0000000493  0.000006  0.000025  0.000307  0.000002
 17   -516.17382101  -0.0000000008  0.000009  0.000014  0.000128  0.000001
                  ***Gradient check signals convergence***
              ***Rediagonalizing the Fockian in SOSCF/NRSCF***

               *****************************************************
               *                     SUCCESS                       *
               *           SCF CONVERGED AFTER  18 CYCLES          *
               *****************************************************


----------------
TOTAL SCF ENERGY
----------------

Total Energy       :         -516.17382101 Eh          -14045.80374 eV

Components:
Nuclear Repulsion  :          613.97835776 Eh           16707.20049 eV
Electronic Energy  :        -1130.15217877 Eh          -30753.00424 eV
One Electron Energy:        -1920.22672713 Eh          -52252.02569 eV
Two Electron Energy:          790.07454836 Eh           21499.02145 eV

Virial components:
Potential Energy   :        -1030.05310642 Eh          -28029.17000 eV
Kinetic Energy     :          513.87928540 Eh           13983.36626 eV
Virial Ratio       :            2.00446513


DFT components:
N(Alpha)           :       41.000035388937 electrons
N(Beta)            :       41.000035388937 electrons
N(Total)           :       82.000070777874 electrons
E(X)               :      -68.256409030520 Eh       
E(C)               :       -2.747761793874 Eh       
E(XC)              :      -71.004170824394 Eh       
DFET-embed. en.    :        0.000000000000 Eh       

---------------
SCF CONVERGENCE
---------------

  Last Energy change         ...   -5.4990e-09  Tolerance :   1.0000e-08
  Last MAX-Density change    ...    2.9264e-04  Tolerance :   1.0000e-07
  Last RMS-Density change    ...    2.5650e-06  Tolerance :   5.0000e-09
  Last Orbital Gradient      ...    1.1906e-06  Tolerance :   1.0000e-05
  Last Orbital Rotation      ...    4.2452e-06  Tolerance :   1.0000e-05

             **** THE GBW FILE WAS UPDATED (M0001.gbw) ****
             **** DENSITY M0001.scfp WAS UPDATED ****
             **** ENERGY FILE WAS UPDATED (M0001.en.tmp) ****
             **** THE GBW FILE WAS UPDATED (M0001.gbw) ****
             **** DENSITY M0001.scfp WAS UPDATED ****
----------------
ORBITAL ENERGIES
----------------

  NO   OCC          E(Eh)            E(eV) 
   0   2.0000     -18.753986      -510.3219 
   1   2.0000     -18.637531      -507.1530 
   2   2.0000     -14.125125      -384.3642 
   3   2.0000      -9.979010      -271.5427 
   4   2.0000      -9.918161      -269.8869 
   5   2.0000      -9.908545      -269.6252 
   6   2.0000      -9.888341      -269.0754 
   7   2.0000      -9.876105      -268.7425 
   8   2.0000      -9.872113      -268.6339 
   9   2.0000      -9.866689      -268.4863 
  10   2.0000      -9.842430      -267.8261 
  11   2.0000      -0.945447       -25.7269 
  12   2.0000      -0.944745       -25.7078 
  13   2.0000      -0.847640       -23.0655 
  14   2.0000      -0.764137       -20.7932 
  15   2.0000      -0.717607       -19.5271 
  16   2.0000      -0.647691       -17.6246 
  17   2.0000      -0.640817       -17.4375 
  18   2.0000      -0.584186       -15.8965 
  19   2.0000      -0.566967       -15.4279 
  20   2.0000      -0.553637       -15.0652 
  21   2.0000      -0.529356       -14.4045 
  22   2.0000      -0.496667       -13.5150 
  23   2.0000      -0.471433       -12.8283 
  24   2.0000      -0.464846       -12.6491 
  25   2.0000      -0.420914       -11.4537 
  26   2.0000      -0.408072       -11.1042 
  27   2.0000      -0.392189       -10.6720 
  28   2.0000      -0.380007       -10.3405 
  29   2.0000      -0.356189        -9.6924 
  30   2.0000      -0.349228        -9.5030 
  31   2.0000      -0.340638        -9.2692 
  32   2.0000      -0.332908        -9.0589 
  33   2.0000      -0.302554        -8.2329 
  34   2.0000      -0.290713        -7.9107 
  35   2.0000      -0.278956        -7.5908 
  36   2.0000      -0.270964        -7.3733 
  37   2.0000      -0.249689        -6.7944 
  38   2.0000      -0.192426        -5.2362 
  39   2.0000      -0.132621        -3.6088 
  40   2.0000      -0.125984        -3.4282 
  41   0.0000      -0.062335        -1.6962 
  42   0.0000      -0.024040        -0.6541 
  43   0.0000      -0.014779        -0.4022 
  44   0.0000      -0.006111        -0.1663 
  45   0.0000       0.005820         0.1584 
  46   0.0000       0.020375         0.5544 
  47   0.0000       0.028706         0.7811 
  48   0.0000       0.045726         1.2443 
  49   0.0000       0.055376         1.5069 
  50   0.0000       0.060758         1.6533 
  51   0.0000       0.071292         1.9399 
  52   0.0000       0.073888         2.0106 
  53   0.0000       0.093041         2.5318 
  54   0.0000       0.095609         2.6017 
  55   0.0000       0.124624         3.3912 
  56   0.0000       0.134977         3.6729 
  57   0.0000       0.137587         3.7439 
  58   0.0000       0.139406         3.7934 
  59   0.0000       0.151771         4.1299 
  60   0.0000       0.165625         4.5069 
  61   0.0000       0.188252         5.1226 
  62   0.0000       0.191439         5.2093 
  63   0.0000       0.207997         5.6599 
  64   0.0000       0.214208         5.8289 
  65   0.0000       0.220728         6.0063 
  66   0.0000       0.229436         6.2433 
  67   0.0000       0.237684         6.4677 
  68   0.0000       0.244172         6.6443 
  69   0.0000       0.255204         6.9445 
  70   0.0000       0.261577         7.1179 
  71   0.0000       0.272918         7.4265 
  72   0.0000       0.279089         7.5944 
  73   0.0000       0.294397         8.0109 
  74   0.0000       0.303765         8.2659 
  75   0.0000       0.309597         8.4246 
  76   0.0000       0.323504         8.8030 
  77   0.0000       0.327021         8.8987 
  78   0.0000       0.330131         8.9833 
  79   0.0000       0.335203         9.1214 
  80   0.0000       0.343744         9.3537 
  81   0.0000       0.352314         9.5870 
  82   0.0000       0.361944         9.8490 
  83   0.0000       0.366670         9.9776 
  84   0.0000       0.367332         9.9956 
  85   0.0000       0.369482        10.0541 
  86   0.0000       0.376088        10.2339 
  87   0.0000       0.383460        10.4345 
  88   0.0000       0.390024        10.6131 
  89   0.0000       0.393279        10.7017 
  90   0.0000       0.405396        11.0314 
  91   0.0000       0.411087        11.1862 
  92   0.0000       0.422388        11.4938 
  93   0.0000       0.428828        11.6690 
  94   0.0000       0.443769        12.0756 
  95   0.0000       0.452963        12.3258 
  96   0.0000       0.470081        12.7916 
  97   0.0000       0.479351        13.0438 
  98   0.0000       0.493361        13.4250 
  99   0.0000       0.497934        13.5495 
 100   0.0000       0.509576        13.8663 
 101   0.0000       0.518399        14.1063 
 102   0.0000       0.524647        14.2764 
 103   0.0000       0.540963        14.7203 
 104   0.0000       0.547057        14.8862 
 105   0.0000       0.562625        15.3098 
 106   0.0000       0.571664        15.5558 
 107   0.0000       0.576079        15.6759 
 108   0.0000       0.601256        16.3610 
 109   0.0000       0.605605        16.4794 
 110   0.0000       0.617830        16.8120 
 111   0.0000       0.630189        17.1483 
 112   0.0000       0.652766        17.7627 
 113   0.0000       0.658858        17.9284 
 114   0.0000       0.675587        18.3837 
 115   0.0000       0.695477        18.9249 
 116   0.0000       0.712663        19.3925 
 117   0.0000       0.726476        19.7684 
 118   0.0000       0.739363        20.1191 
 119   0.0000       0.758228        20.6324 
 120   0.0000       0.771510        20.9938 
 121   0.0000       0.783061        21.3082 
 122   0.0000       0.796937        21.6858 
 123   0.0000       0.812208        22.1013 
 124   0.0000       0.813488        22.1361 
 125   0.0000       0.816364        22.2144 
 126   0.0000       0.827821        22.5261 
 127   0.0000       0.847991        23.0750 
 128   0.0000       0.858772        23.3684 
 129   0.0000       0.874437        23.7946 
 130   0.0000       0.896287        24.3892 
 131   0.0000       0.905401        24.6372 
 132   0.0000       0.916499        24.9392 
 133   0.0000       0.931057        25.3353 
 134   0.0000       0.954038        25.9607 
 135   0.0000       0.981008        26.6946 
 136   0.0000       0.995718        27.0949 
 137   0.0000       1.016053        27.6482 
 138   0.0000       1.024217        27.8704 
 139   0.0000       1.034368        28.1466 
 140   0.0000       1.042895        28.3786 
 141   0.0000       1.056400        28.7461 
 142   0.0000       1.071539        29.1581 
 143   0.0000       1.082226        29.4489 
 144   0.0000       1.097487        29.8641 
 145   0.0000       1.102754        30.0075 
 146   0.0000       1.132816        30.8255 
 147   0.0000       1.141080        31.0504 
 148   0.0000       1.168217        31.7888 
 149   0.0000       1.189938        32.3799 
 150   0.0000       1.203294        32.7433 
 151   0.0000       1.214335        33.0437 
 152   0.0000       1.230756        33.4906 
 153   0.0000       1.237385        33.6709 
 154   0.0000       1.252442        34.0807 
 155   0.0000       1.271074        34.5877 
 156   0.0000       1.277966        34.7752 
 157   0.0000       1.296685        35.2846 
 158   0.0000       1.302845        35.4522 
 159   0.0000       1.333455        36.2852 
 160   0.0000       1.341187        36.4956 
 161   0.0000       1.362197        37.0673 
 162   0.0000       1.379708        37.5438 
 163   0.0000       1.398269        38.0488 
 164   0.0000       1.413586        38.4656 
 165   0.0000       1.427070        38.8325 
 166   0.0000       1.442191        39.2440 
 167   0.0000       1.449118        39.4325 
 168   0.0000       1.473098        40.0850 
 169   0.0000       1.484986        40.4085 
 170   0.0000       1.498535        40.7772 
 171   0.0000       1.508460        41.0473 
 172   0.0000       1.521046        41.3898 
 173   0.0000       1.540485        41.9187 
 174   0.0000       1.544878        42.0383 
 175   0.0000       1.563845        42.5544 
 176   0.0000       1.574788        42.8522 
 177   0.0000       1.589524        43.2531 
 178   0.0000       1.604123        43.6504 
 179   0.0000       1.611011        43.8378 
 180   0.0000       1.635324        44.4994 
 181   0.0000       1.637369        44.5551 
 182   0.0000       1.656166        45.0666 
 183   0.0000       1.665823        45.3293 
 184   0.0000       1.671205        45.4758 
 185   0.0000       1.707899        46.4743 
 186   0.0000       1.718670        46.7674 
 187   0.0000       1.725170        46.9443 
 188   0.0000       1.744490        47.4700 
 189   0.0000       1.774243        48.2796 
 190   0.0000       1.789977        48.7078 
 191   0.0000       1.797333        48.9079 
 192   0.0000       1.803331        49.0711 
 193   0.0000       1.813859        49.3576 
 194   0.0000       1.824501        49.6472 
 195   0.0000       1.834845        49.9287 
 196   0.0000       1.852540        50.4102 
 197   0.0000       1.858842        50.5817 
 198   0.0000       1.879318        51.1388 
 199   0.0000       1.889485        51.4155 
 200   0.0000       1.915606        52.1263 
 201   0.0000       1.944202        52.9044 
 202   0.0000       1.969139        53.5830 
 203   0.0000       1.980290        53.8864 
 204   0.0000       1.985679        54.0331 
 205   0.0000       2.002630        54.4943 
 206   0.0000       2.056918        55.9716 
 207   0.0000       2.068312        56.2816 
 208   0.0000       2.082917        56.6790 
 209   0.0000       2.101510        57.1850 
 210   0.0000       2.112221        57.4765 
 211   0.0000       2.125750        57.8446 
 212   0.0000       2.128996        57.9329 
 213   0.0000       2.142898        58.3112 
 214   0.0000       2.174327        59.1664 
 215   0.0000       2.193786        59.6959 
 216   0.0000       2.224544        60.5329 
 217   0.0000       2.227086        60.6021 
 218   0.0000       2.243092        61.0376 
 219   0.0000       2.253430        61.3190 
 220   0.0000       2.264422        61.6181 
 221   0.0000       2.272948        61.8500 
 222   0.0000       2.298414        62.5430 
 223   0.0000       2.350857        63.9701 
 224   0.0000       2.367054        64.4108 
 225   0.0000       2.396553        65.2135 
 226   0.0000       2.400535        65.3219 
 227   0.0000       2.407687        65.5165 
 228   0.0000       2.419124        65.8277 
 229   0.0000       2.447117        66.5895 
 230   0.0000       2.454454        66.7891 
 231   0.0000       2.467311        67.1389 
 232   0.0000       2.476476        67.3883 
 233   0.0000       2.484267        67.6003 
 234   0.0000       2.495512        67.9063 
 235   0.0000       2.506838        68.2145 
 236   0.0000       2.531468        68.8847 
 237   0.0000       2.547142        69.3113 
 238   0.0000       2.551776        69.4373 
 239   0.0000       2.563001        69.7428 
 240   0.0000       2.584998        70.3414 
 241   0.0000       2.590644        70.4950 
 242   0.0000       2.604587        70.8744 
 243   0.0000       2.605813        70.9078 
 244   0.0000       2.626190        71.4623 
 245   0.0000       2.646617        72.0181 
 246   0.0000       2.658484        72.3410 
 247   0.0000       2.678334        72.8812 
 248   0.0000       2.683914        73.0330 
 249   0.0000       2.705497        73.6203 
 250   0.0000       2.722404        74.0804 
 251   0.0000       2.738437        74.5167 
 252   0.0000       2.761902        75.1552 
 253   0.0000       2.778280        75.6008 
 254   0.0000       2.786453        75.8232 
 255   0.0000       2.803070        76.2754 
 256   0.0000       2.820644        76.7536 
 257   0.0000       2.835203        77.1498 
 258   0.0000       2.849667        77.5434 
 259   0.0000       2.852375        77.6171 
 260   0.0000       2.877550        78.3021 
 261   0.0000       2.891241        78.6747 
 262   0.0000       2.911735        79.2323 
 263   0.0000       2.923616        79.5556 
 264   0.0000       2.927960        79.6738 
 265   0.0000       2.945794        80.1591 
 266   0.0000       2.971779        80.8662 
 267   0.0000       2.984075        81.2008 
 268   0.0000       3.001621        81.6783 
 269   0.0000       3.004748        81.7634 
 270   0.0000       3.035524        82.6008 
 271   0.0000       3.039671        82.7136 
 272   0.0000       3.048357        82.9500 
 273   0.0000       3.056201        83.1635 
 274   0.0000       3.075723        83.6947 
 275   0.0000       3.083962        83.9189 
 276   0.0000       3.099848        84.3512 
 277   0.0000       3.119017        84.8728 
 278   0.0000       3.130189        85.1768 
 279   0.0000       3.135956        85.3337 
 280   0.0000       3.146445        85.6191 
 281   0.0000       3.166955        86.1772 
 282   0.0000       3.183650        86.6315 
 283   0.0000       3.187547        86.7376 
 284   0.0000       3.212815        87.4251 
 285   0.0000       3.221881        87.6718 
 286   0.0000       3.237262        88.0904 
 287   0.0000       3.239710        88.1570 
 288   0.0000       3.259229        88.6881 
 289   0.0000       3.275904        89.1419 
 290   0.0000       3.280888        89.2775 
 291   0.0000       3.313779        90.1725 
 292   0.0000       3.335261        90.7571 
 293   0.0000       3.347097        91.0791 
 294   0.0000       3.351282        91.1930 
 295   0.0000       3.358402        91.3868 
 296   0.0000       3.366730        91.6134 
 297   0.0000       3.377887        91.9170 
 298   0.0000       3.394694        92.3743 
 299   0.0000       3.403467        92.6131 
 300   0.0000       3.412576        92.8609 
 301   0.0000       3.423288        93.1524 
 302   0.0000       3.430614        93.3517 
 303   0.0000       3.438105        93.5556 
 304   0.0000       3.467235        94.3483 
 305   0.0000       3.485034        94.8326 
 306   0.0000       3.510001        95.5120 
 307   0.0000       3.525393        95.9308 
 308   0.0000       3.536661        96.2374 
 309   0.0000       3.597876        97.9032 
 310   0.0000       3.610453        98.2454 
 311   0.0000       3.623929        98.6121 
 312   0.0000       3.687318       100.3370 
 313   0.0000       3.697313       100.6090 
 314   0.0000       3.705831       100.8408 
 315   0.0000       3.723470       101.3208 
 316   0.0000       3.756203       102.2115 
 317   0.0000       3.792549       103.2005 
 318   0.0000       3.806268       103.5738 
 319   0.0000       3.823274       104.0366 
 320   0.0000       3.846539       104.6697 
 321   0.0000       3.861223       105.0692 
 322   0.0000       3.867412       105.2376 
 323   0.0000       3.897090       106.0452 
 324   0.0000       3.927640       106.8765 
 325   0.0000       3.943084       107.2968 
 326   0.0000       3.982486       108.3690 
 327   0.0000       3.994419       108.6937 
 328   0.0000       4.012051       109.1735 
 329   0.0000       4.028243       109.6141 
 330   0.0000       4.048186       110.1567 
 331   0.0000       4.069510       110.7370 
 332   0.0000       4.083519       111.1182 
 333   0.0000       4.126620       112.2911 
 334   0.0000       4.130308       112.3914 
 335   0.0000       4.150372       112.9374 
 336   0.0000       4.187324       113.9429 
 337   0.0000       4.210085       114.5623 
 338   0.0000       4.231811       115.1534 
 339   0.0000       4.263466       116.0148 
 340   0.0000       4.280633       116.4820 
 341   0.0000       4.316699       117.4634 
 342   0.0000       4.336882       118.0126 
 343   0.0000       4.438667       120.7823 
 344   0.0000       4.460100       121.3655 
 345   0.0000       4.508144       122.6728 
 346   0.0000       4.526328       123.1677 
 347   0.0000       4.576550       124.5342 
 348   0.0000       4.586489       124.8047 
 349   0.0000       4.612046       125.5002 
 350   0.0000       4.644424       126.3812 
 351   0.0000       4.670616       127.0939 
 352   0.0000       4.680953       127.3752 
 353   0.0000       4.698875       127.8629 
 354   0.0000       4.730432       128.7216 
 355   0.0000       4.746626       129.1623 
 356   0.0000       4.792509       130.4108 
 357   0.0000       4.801918       130.6668 
 358   0.0000       4.832172       131.4901 
 359   0.0000       4.875841       132.6784 
 360   0.0000       4.899199       133.3140 
 361   0.0000       4.948233       134.6483 
 362   0.0000       4.964570       135.0928 
 363   0.0000       4.995582       135.9367 
 364   0.0000       5.053760       137.5198 
 365   0.0000       5.092000       138.5604 
 366   0.0000       5.156016       140.3023 
 367   0.0000       5.183210       141.0423 
 368   0.0000       5.188631       141.1898 
 369   0.0000       5.239886       142.5846 
 370   0.0000       5.250910       142.8845 
 371   0.0000       5.284626       143.8020 
 372   0.0000       5.333077       145.1204 
 373   0.0000       5.348924       145.5516 
 374   0.0000       5.383088       146.4813 
 375   0.0000       5.543207       150.8383 
 376   0.0000       5.551051       151.0518 
 377   0.0000       5.619342       152.9101 
 378   0.0000       5.657037       153.9358 
 379   0.0000       5.696713       155.0154 
 380   0.0000       5.860066       159.4605 
 381   0.0000       6.051085       164.6584 
 382   0.0000       6.095633       165.8706 
 383   0.0000       6.196767       168.6226 
 384   0.0000       6.304820       171.5629 
 385   0.0000       6.343819       172.6241 
 386   0.0000       6.352980       172.8734 
 387   0.0000       6.575355       178.9245 
 388   0.0000       6.596770       179.5072 
 389   0.0000       6.645628       180.8367 
 390   0.0000       6.695346       182.1896 
 391   0.0000       6.782218       184.5535 
 392   0.0000       6.853897       186.5040 
 393   0.0000       7.027045       191.2156 
 394   0.0000       7.050849       191.8634 
 395   0.0000       7.214335       196.3120 
 396   0.0000      22.016723       599.1055 
 397   0.0000      22.128656       602.1513 
 398   0.0000      22.234268       605.0252 
 399   0.0000      22.415807       609.9651 
 400   0.0000      22.457028       611.0868 
 401   0.0000      22.626197       615.6901 
 402   0.0000      22.689555       617.4142 
 403   0.0000      23.190558       631.0472 
 404   0.0000      31.606782       860.0643 
 405   0.0000      43.502579      1183.7654 
 406   0.0000      43.709381      1189.3927 

                    ********************************
                    * MULLIKEN POPULATION ANALYSIS *
                    ********************************

-----------------------
MULLIKEN ATOMIC CHARGES
-----------------------
   0 O :   -0.319011
   1 C :    0.128825
   2 C :   -0.273083
   3 C :    0.057272
   4 C :   -0.269758
   5 C :   -0.150252
   6 N :   -0.262552
   7 H :    0.282309
   8 H :    0.276898
   9 H :    0.264549
  10 C :   -0.272973
  11 C :   -0.222371
  12 C :    0.090472
  13 O :   -0.375684
  14 H :    0.285459
  15 H :    0.062356
  16 H :    0.122325
  17 H :    0.124261
  18 H :    0.135250
  19 H :    0.147849
  20 H :    0.098979
  21 H :    0.068877
Sum of atomic charges:    0.0000000

--------------------------------
MULLIKEN REDUCED ORBITAL CHARGES
--------------------------------
  0 O s       :     3.761139  s :     3.761139
      pz      :     1.735181  p :     4.523269
      px      :     1.575535
      py      :     1.212553
      dz2     :     0.004090  d :     0.032973
      dxz     :     0.005258
      dyz     :     0.005213
      dx2y2   :     0.005778
      dxy     :     0.012633
      f0      :     0.000271  f :     0.001630
      f+1     :     0.000140
      f-1     :     0.000252
      f+2     :     0.000090
      f-2     :     0.000280
      f+3     :     0.000419
      f-3     :     0.000177
  1 C s       :     3.124833  s :     3.124833
      pz      :     0.964910  p :     2.572795
      px      :     0.840786
      py      :     0.767098
      dz2     :     0.014549  d :     0.159425
      dxz     :     0.025367
      dyz     :     0.033744
      dx2y2   :     0.045475
      dxy     :     0.040291
      f0      :     0.001385  f :     0.014122
      f+1     :     0.001717
      f-1     :     0.001308
      f+2     :     0.000980
      f-2     :     0.002449
      f+3     :     0.001813
      f-3     :     0.004470
  2 C s       :     3.199545  s :     3.199545
      pz      :     1.107936  p :     2.988104
      px      :     0.948230
      py      :     0.931937
      dz2     :     0.012791  d :     0.078791
      dxz     :     0.017209
      dyz     :     0.008951
      dx2y2   :     0.017180
      dxy     :     0.022660
      f0      :     0.000740  f :     0.006643
      f+1     :     0.001245
      f-1     :     0.000641
      f+2     :     0.000601
      f-2     :     0.000863
      f+3     :     0.000922
      f-3     :     0.001630
  3 C s       :     3.132207  s :     3.132207
      pz      :     1.087860  p :     2.663652
      px      :     0.781712
      py      :     0.794080
      dz2     :     0.012368  d :     0.137852
      dxz     :     0.020201
      dyz     :     0.031588
      dx2y2   :     0.039437
      dxy     :     0.034258
      f0      :     0.001095  f :     0.009016
      f+1     :     0.000847
      f-1     :     0.000900
      f+2     :     0.000956
      f-2     :     0.001018
      f+3     :     0.001200
      f-3     :     0.002998
  4 C s       :     3.212044  s :     3.212044
      pz      :     0.934426  p :     2.961748
      px      :     0.946880
      py      :     1.080442
      dz2     :     0.010586  d :     0.090548
      dxz     :     0.033475
      dyz     :     0.015512
      dx2y2   :     0.011914
      dxy     :     0.019062
      f0      :     0.001171  f :     0.005418
      f+1     :     0.000787
      f-1     :     0.000608
      f+2     :     0.001170
      f-2     :     0.000281
      f+3     :     0.000592
      f-3     :     0.000809
  5 C s       :     3.197471  s :     3.197471
      pz      :     0.905571  p :     2.844898
      px      :     0.993419
      py      :     0.945907
      dz2     :     0.022350  d :     0.100804
      dxz     :     0.018010
      dyz     :     0.029529
      dx2y2   :     0.022824
      dxy     :     0.008090
      f0      :     0.001273  f :     0.007079
      f+1     :     0.001090
      f-1     :     0.001219
      f+2     :     0.001087
      f-2     :     0.001145
      f+3     :     0.000606
      f-3     :     0.000659
  6 N s       :     3.421203  s :     3.421203
      pz      :     1.242321  p :     3.795357
      px      :     1.331192
      py      :     1.221844
      dz2     :     0.012888  d :     0.044036
      dxz     :     0.008343
      dyz     :     0.005226
      dx2y2   :     0.010219
      dxy     :     0.007359
      f0      :     0.000201  f :     0.001955
      f+1     :     0.000167
      f-1     :     0.000516
      f+2     :     0.000325
      f-2     :     0.000270
      f+3     :     0.000381
      f-3     :     0.000095
  7 H s       :     0.683374  s :     0.683374
      pz      :     0.017344  p :     0.034317
      px      :     0.008485
      py      :     0.008489
  8 H s       :     0.677336  s :     0.677336
      pz      :     0.016805  p :     0.045766
      px      :     0.022128
      py      :     0.006833
  9 H s       :     0.701347  s :     0.701347
      pz      :     0.007060  p :     0.034104
      px      :     0.010694
      py      :     0.016350
 10 C s       :     3.201007  s :     3.201007
      pz      :     1.061844  p :     2.959312
      px      :     1.011825
      py      :     0.885643
      dz2     :     0.013780  d :     0.106368
      dxz     :     0.025037
      dyz     :     0.017391
      dx2y2   :     0.016421
      dxy     :     0.033740
      f0      :     0.000671  f :     0.006285
      f+1     :     0.001034
      f-1     :     0.000361
      f+2     :     0.000816
      f-2     :     0.000867
      f+3     :     0.000866
      f-3     :     0.001670
 11 C s       :     3.293561  s :     3.293561
      pz      :     1.052377  p :     2.850190
      px      :     0.864240
      py      :     0.933573
      dz2     :     0.009212  d :     0.072186
      dxz     :     0.012321
      dyz     :     0.008854
      dx2y2   :     0.019829
      dxy     :     0.021970
      f0      :     0.000682  f :     0.006434
      f+1     :     0.001346
      f-1     :     0.000537
      f+2     :     0.000597
      f-2     :     0.000867
      f+3     :     0.000974
      f-3     :     0.001432
 12 C s       :     3.046445  s :     3.046445
      pz      :     0.869282  p :     2.651165
      px      :     0.857434
      py      :     0.924448
      dz2     :     0.029667  d :     0.195956
      dxz     :     0.038242
      dyz     :     0.023502
      dx2y2   :     0.034159
      dxy     :     0.070386
      f0      :     0.001190  f :     0.015963
      f+1     :     0.002748
      f-1     :     0.000677
      f+2     :     0.002110
      f-2     :     0.002263
      f+3     :     0.002251
      f-3     :     0.004723
 13 O s       :     3.782128  s :     3.782128
      pz      :     1.433726  p :     4.563019
      px      :     1.354491
      py      :     1.774802
      dz2     :     0.004636  d :     0.028933
      dxz     :     0.008915
      dyz     :     0.001340
      dx2y2   :     0.007370
      dxy     :     0.006673
      f0      :     0.000080  f :     0.001603
      f+1     :     0.000384
      f-1     :     0.000004
      f+2     :     0.000321
      f-2     :     0.000159
      f+3     :     0.000315
      f-3     :     0.000340
 14 H s       :     0.668535  s :     0.668535
      pz      :     0.015702  p :     0.046006
      px      :     0.013872
      py      :     0.016433
 15 H s       :     0.915829  s :     0.915829
      pz      :     0.005848  p :     0.021815
      px      :     0.005196
      py      :     0.010771
 16 H s       :     0.856478  s :     0.856478
      pz      :     0.006103  p :     0.021196
      px      :     0.005689
      py      :     0.009405
 17 H s       :     0.854411  s :     0.854411
      pz      :     0.007377  p :     0.021328
      px      :     0.005151
      py      :     0.008800
 18 H s       :     0.843571  s :     0.843571
      pz      :     0.004547  p :     0.021179
      px      :     0.012741
      py      :     0.003891
 19 H s       :     0.830835  s :     0.830835
      pz      :     0.004888  p :     0.021316
      px      :     0.004521
      py      :     0.011908
 20 H s       :     0.879681  s :     0.879681
      pz      :     0.005918  p :     0.021340
      px      :     0.006065
      py      :     0.009357
 21 H s       :     0.908927  s :     0.908927
      pz      :     0.005636  p :     0.022196
      px      :     0.005547
      py      :     0.011014


                     *******************************
                     * LOEWDIN POPULATION ANALYSIS *
                     *******************************

----------------------
LOEWDIN ATOMIC CHARGES
----------------------
   0 O :    0.104976
   1 C :   -0.260394
   2 C :   -0.186728
   3 C :   -0.253235
   4 C :   -0.252743
   5 C :   -0.265786
   6 N :    0.123924
   7 H :    0.196147
   8 H :    0.232864
   9 H :    0.189622
  10 C :   -0.234570
  11 C :   -0.170339
  12 C :   -0.399897
  13 O :    0.014870
  14 H :    0.180152
  15 H :    0.135189
  16 H :    0.146138
  17 H :    0.151633
  18 H :    0.128338
  19 H :    0.141989
  20 H :    0.138395
  21 H :    0.139455

-------------------------------
LOEWDIN REDUCED ORBITAL CHARGES
-------------------------------
  0 O s       :     3.342333  s :     3.342333
      pz      :     1.655995  p :     4.473123
      px      :     1.569690
      py      :     1.247438
      dz2     :     0.007909  d :     0.074603
      dxz     :     0.007424
      dyz     :     0.013871
      dx2y2   :     0.017295
      dxy     :     0.028104
      f0      :     0.000474  f :     0.004964
      f+1     :     0.000262
      f-1     :     0.000552
      f+2     :     0.000238
      f-2     :     0.001098
      f+3     :     0.001364
      f-3     :     0.000976
  1 C s       :     2.743149  s :     2.743149
      pz      :     0.897811  p :     2.782912
      px      :     0.989035
      py      :     0.896066
      dz2     :     0.068521  d :     0.645655
      dxz     :     0.095286
      dyz     :     0.112227
      dx2y2   :     0.168517
      dxy     :     0.201104
      f0      :     0.007258  f :     0.088678
      f+1     :     0.006280
      f-1     :     0.008791
      f+2     :     0.007909
      f-2     :     0.016011
      f+3     :     0.014873
      f-3     :     0.027556
  2 C s       :     2.764558  s :     2.764558
      pz      :     0.998096  p :     2.995213
      px      :     1.018766
      py      :     0.978351
      dz2     :     0.046810  d :     0.385363
      dxz     :     0.069594
      dyz     :     0.040703
      dx2y2   :     0.116620
      dxy     :     0.111636
      f0      :     0.003534  f :     0.041594
      f+1     :     0.004311
      f-1     :     0.003672
      f+2     :     0.005524
      f-2     :     0.006235
      f+3     :     0.007269
      f-3     :     0.011048
  3 C s       :     2.715321  s :     2.715321
      pz      :     0.951492  p :     2.943148
      px      :     0.955149
      py      :     1.036507
      dz2     :     0.043393  d :     0.537508
      dxz     :     0.067663
      dyz     :     0.104476
      dx2y2   :     0.169665
      dxy     :     0.152312
      f0      :     0.004266  f :     0.057258
      f+1     :     0.004381
      f-1     :     0.006345
      f+2     :     0.006486
      f-2     :     0.007910
      f+3     :     0.008701
      f-3     :     0.019170
  4 C s       :     2.778531  s :     2.778531
      pz      :     0.984822  p :     3.035992
      px      :     1.020035
      py      :     1.031134
      dz2     :     0.055806  d :     0.399683
      dxz     :     0.128465
      dyz     :     0.077513
      dx2y2   :     0.063931
      dxy     :     0.073967
      f0      :     0.007995  f :     0.038538
      f+1     :     0.007012
      f-1     :     0.003208
      f+2     :     0.006321
      f-2     :     0.004038
      f+3     :     0.004328
      f-3     :     0.005635
  5 C s       :     2.823293  s :     2.823293
      pz      :     0.983703  p :     2.975451
      px      :     1.009242
      py      :     0.982506
      dz2     :     0.099684  d :     0.419687
      dxz     :     0.079222
      dyz     :     0.106629
      dx2y2   :     0.096354
      dxy     :     0.037798
      f0      :     0.007285  f :     0.047356
      f+1     :     0.007296
      f-1     :     0.007666
      f+2     :     0.006596
      f-2     :     0.010892
      f+3     :     0.003880
      f-3     :     0.003741
  6 N s       :     3.009441  s :     3.009441
      pz      :     1.204108  p :     3.698887
      px      :     1.275768
      py      :     1.219011
      dz2     :     0.042053  d :     0.158057
      dxz     :     0.030536
      dyz     :     0.026706
      dx2y2   :     0.030518
      dxy     :     0.028243
      f0      :     0.001203  f :     0.009691
      f+1     :     0.001013
      f-1     :     0.002272
      f+2     :     0.001896
      f-2     :     0.000839
      f+3     :     0.001784
      f-3     :     0.000683
  7 H s       :     0.700607  s :     0.700607
      pz      :     0.052352  p :     0.103247
      px      :     0.024386
      py      :     0.026509
  8 H s       :     0.628025  s :     0.628025
      pz      :     0.050129  p :     0.139111
      px      :     0.072067
      py      :     0.016915
  9 H s       :     0.707945  s :     0.707945
      pz      :     0.019732  p :     0.102433
      px      :     0.033629
      py      :     0.049071
 10 C s       :     2.771167  s :     2.771167
      pz      :     0.962343  p :     2.985968
      px      :     1.033085
      py      :     0.990540
      dz2     :     0.051236  d :     0.435865
      dxz     :     0.078752
      dyz     :     0.063214
      dx2y2   :     0.100812
      dxy     :     0.141851
      f0      :     0.003496  f :     0.041570
      f+1     :     0.004562
      f-1     :     0.002782
      f+2     :     0.006857
      f-2     :     0.005119
      f+3     :     0.007326
      f-3     :     0.011428
 11 C s       :     2.786364  s :     2.786364
      pz      :     0.969384  p :     2.989298
      px      :     1.028127
      py      :     0.991788
      dz2     :     0.041552  d :     0.356337
      dxz     :     0.063166
      dyz     :     0.033208
      dx2y2   :     0.104668
      dxy     :     0.113743
      f0      :     0.003153  f :     0.038339
      f+1     :     0.004983
      f-1     :     0.003176
      f+2     :     0.004848
      f-2     :     0.005339
      f+3     :     0.007082
      f-3     :     0.009758
 12 C s       :     2.738001  s :     2.738001
      pz      :     0.847398  p :     2.782851
      px      :     0.934617
      py      :     1.000837
      dz2     :     0.094799  d :     0.778841
      dxz     :     0.146081
      dyz     :     0.088997
      dx2y2   :     0.180936
      dxy     :     0.268028
      f0      :     0.007072  f :     0.100204
      f+1     :     0.012753
      f-1     :     0.004563
      f+2     :     0.015737
      f-2     :     0.013641
      f+3     :     0.015823
      f-3     :     0.030615
 13 O s       :     3.421334  s :     3.421334
      pz      :     1.393026  p :     4.493604
      px      :     1.448933
      py      :     1.651646
      dz2     :     0.008302  d :     0.064733
      dxz     :     0.019235
      dyz     :     0.003152
      dx2y2   :     0.018148
      dxy     :     0.015896
      f0      :     0.000440  f :     0.005459
      f+1     :     0.000984
      f-1     :     0.000012
      f+2     :     0.001196
      f-2     :     0.000598
      f+3     :     0.001091
      f-3     :     0.001137
 14 H s       :     0.671364  s :     0.671364
      pz      :     0.044597  p :     0.148484
      px      :     0.050393
      py      :     0.053494
 15 H s       :     0.805959  s :     0.805959
      pz      :     0.016049  p :     0.058853
      px      :     0.014829
      py      :     0.027975
 16 H s       :     0.795529  s :     0.795529
      pz      :     0.016002  p :     0.058333
      px      :     0.014784
      py      :     0.027546
 17 H s       :     0.789876  s :     0.789876
      pz      :     0.018835  p :     0.058491
      px      :     0.013768
      py      :     0.025888
 18 H s       :     0.809908  s :     0.809908
      pz      :     0.012637  p :     0.061754
[...]
     52       0.022297  -0.002945  -0.467711  -0.110216   0.297672   0.527118
     53       0.001944  -0.017750  -0.330694  -0.081089   0.223746   0.396838
     54       0.007715   0.006378   0.064591   0.830391   0.110371   0.218994
     55       0.012334  -0.020688  -0.010556  -0.158674  -0.020186  -0.039520
     56       0.048955  -0.036455   0.003086  -0.022860  -0.003587  -0.008241
     57       0.002194  -0.016021   0.003853  -0.107960   0.000818  -0.000430
     58       0.005839   0.001196  -0.027379   0.449085  -0.012461  -0.004367
     59       0.003193  -0.016169   0.006826  -0.144556   0.004999   0.000500
     60       0.074957  -0.003921   0.022965  -0.010499   0.082956  -0.039991
     61       0.083826   0.012396  -0.033364   0.016728  -0.132925   0.068539
     62       0.005517  -0.018817   0.012224  -0.005628   0.043575  -0.020943
     63      -0.292342  -0.001033   0.002511  -0.001164   0.004331  -0.002458
     64       0.202771   0.009306   0.005138  -0.003216   0.010224  -0.004872
     65      -0.141249   0.000733   0.001112  -0.000874   0.001436   0.000013
                 60         61         62         63         64         65    
      0      -0.000048   0.000029   0.000013  -0.000057   0.000033   0.029282
      1       0.000072  -0.000006   0.000043   0.000051  -0.000032   0.051076
      2      -0.000022   0.000013   0.000002  -0.000049   0.000020   0.018490
      3       0.000363  -0.000090  -0.000123   0.000105  -0.000006   0.002046
      4      -0.000729   0.000020  -0.000131  -0.000110   0.000094   0.002183
      5       0.000123  -0.000037  -0.000048   0.000105   0.000041   0.001013
      6      -0.004641  -0.000149  -0.000674  -0.000238  -0.000134  -0.000078
      7      -0.014394   0.000347  -0.000791   0.000023   0.000220  -0.001501
      8      -0.001964  -0.000104  -0.000304   0.000055  -0.000017  -0.000074
      9      -0.003296   0.000195  -0.000585  -0.000055   0.000299   0.000010
     10      -0.000719  -0.000036  -0.001339  -0.000085  -0.000026   0.000039
     11      -0.001411  -0.000006  -0.000354  -0.000189  -0.000245  -0.000000
     12      -0.001905   0.002724  -0.000043   0.000262   0.000024  -0.000039
     13       0.002180  -0.013052   0.000239   0.000293   0.000114  -0.000077
     14      -0.002230   0.001460   0.000078   0.000078  -0.000078   0.000005
     15      -0.000105   0.050944  -0.000310   0.000754   0.000300  -0.000002
     16      -0.001862  -0.075120   0.000547  -0.000318  -0.001500   0.000010
     17       0.000703   0.021294  -0.000120   0.000133   0.000380  -0.000022
     18       0.000677  -0.001272   0.000343   0.019828   0.032392   0.000094
     19       0.000066   0.001601   0.000071  -0.031517  -0.059076   0.000044
     20      -0.000346  -0.000602  -0.000192  -0.043303   0.045560  -0.000098
     21      -0.000607  -0.000670   0.000040   0.129583  -0.160084   0.000162
     22      -0.000664  -0.007158   0.000214  -0.258506   0.343004  -0.000032
     23      -0.000427   0.008231  -0.000218   0.503586  -0.721647   0.000399
     24      -0.011604   0.003210  -0.005814   0.001052   0.007114  -0.001411
     25       0.001709  -0.001472  -0.001070  -0.005944  -0.007099  -0.000595
     26       0.006093  -0.003812   0.003473  -0.011052   0.006353   0.001396
     27       0.001624   0.013659   0.000346  -0.410840  -0.293227  -0.000100
     28       0.001396  -0.010720   0.000186   0.693290   0.484665   0.000161
     29      -0.001714   0.001480  -0.000102   0.099164   0.089161   0.000075
     30      -0.041013   0.000416  -0.008417  -0.000442  -0.000141   0.000291
     31       0.068241  -0.000958   0.008973  -0.000070  -0.000138   0.000017
     32      -0.021146   0.000147  -0.003920   0.000237  -0.000111   0.000049
     33      -0.002530   0.000371   0.035448   0.000218   0.000067  -0.000067
     34      -0.008681   0.000705   0.076852   0.000021  -0.000009   0.000377
     35      -0.000632   0.000136   0.011018   0.000155   0.000091  -0.000027
     36       0.000532   0.000008   0.002726   0.000116  -0.000075  -0.000186
     37      -0.000810   0.000090  -0.001126   0.000082   0.000011  -0.000926
     38       0.000346  -0.000027   0.001183   0.000034  -0.000036  -0.000145
     39      -0.000446   0.000033  -0.000572  -0.000054   0.000056  -0.000173
     40       0.000134  -0.000015   0.000007  -0.000016  -0.000000   0.000051
     41      -0.000228   0.000022  -0.000268  -0.000032   0.000027  -0.000061
     42      -0.000496  -0.000284   0.000358   0.000215  -0.000139  -0.483879
     43       0.001484  -0.000053   0.001454   0.000324  -0.000182  -0.818830
     44       0.000032  -0.000088   0.000165   0.000241  -0.000216  -0.302505
     45       0.068687  -0.000748   0.004029   0.000320  -0.000441  -0.001120
     46       0.163408  -0.001181   0.010535   0.000448  -0.001029   0.006325
     47       0.027534  -0.000103   0.001719   0.000016  -0.000176  -0.000028
     48       0.022198  -0.044560   0.000838   0.000593   0.000301   0.000230
     49      -0.038409   0.101794  -0.001100  -0.001625  -0.000096  -0.000224
     50       0.020126  -0.053782   0.000603   0.000954  -0.000331   0.000147
     51       0.006142   0.017128   0.000522   0.000346  -0.000593   0.000101
     52       0.012597   0.054488  -0.000595  -0.000092  -0.001142   0.000269
     53       0.009798   0.041560  -0.000663   0.000671  -0.000644   0.000169
     54       0.009047  -0.443576   0.002474  -0.003499  -0.005004   0.000155
     55      -0.002200   0.073262  -0.000431   0.003534   0.000858  -0.000067
     56      -0.001242   0.021681  -0.000451   0.000326  -0.000679   0.000045
     57      -0.005597  -0.166583   0.001092   0.000091  -0.003344   0.000049
     58       0.024063   0.814752  -0.005888   0.007283   0.016824  -0.000169
     59      -0.007611  -0.275740   0.001936   0.002351  -0.005709  -0.000119
     60       0.485296  -0.005794   0.066183  -0.000179  -0.000102   0.000131
     61      -0.800453   0.010946  -0.101520   0.000629   0.000318   0.000122
     62       0.253345  -0.003240   0.033673  -0.000473  -0.000304   0.000129
     63       0.050462  -0.003526  -0.399872  -0.000038  -0.000009  -0.001182
     64       0.117823  -0.007941  -0.895243   0.000004  -0.000002  -0.000535
     65       0.015153  -0.000812  -0.122993  -0.000005   0.000041  -0.000366


-----------
IR SPECTRUM
-----------

 Mode   freq       eps      Int      T**2         TX        TY        TZ
       cm**-1   L/(mol*cm) km/mol    a.u.
----------------------------------------------------------------------------
  6:     53.09   0.002750   13.90  0.016166  ( 0.122667 -0.032633  0.007315)
  7:     75.79   0.001581    7.99  0.006509  (-0.035177 -0.055782  0.046473)
  8:    140.13   0.000334    1.69  0.000744  ( 0.020078 -0.015800 -0.009550)
  9:    160.49   0.001189    6.01  0.002313  ( 0.047845 -0.002877  0.003891)
 10:    248.02   0.001504    7.60  0.001893  ( 0.027193 -0.004551 -0.033656)
 11:    271.08   0.000377    1.91  0.000434  (-0.009506 -0.011882  0.014238)
 12:    293.70   0.000595    3.01  0.000632  ( 0.009462 -0.010382  0.020853)
 13:    319.88   0.001228    6.21  0.001198  ( 0.033875 -0.003080 -0.006437)
 14:    386.09   0.003516   17.77  0.002842  ( 0.000861  0.015706 -0.050938)
 15:    416.89   0.000902    4.56  0.000675  (-0.022880  0.010241  0.006844)
 16:    420.41   0.016560   83.69  0.012292  ( 0.056255  0.002953 -0.095493)
 17:    445.16   0.008109   40.98  0.005684  (-0.055173  0.017186  0.048425)
 18:    470.37   0.004272   21.59  0.002834  ( 0.047838 -0.015742 -0.017263)
 19:    516.80   0.003309   16.72  0.001998  ( 0.036054  0.012803 -0.023113)
 20:    571.08   0.002039   10.31  0.001114  ( 0.017828 -0.028065  0.002986)
 21:    619.36   0.003976   20.09  0.002003  ( 0.002278 -0.012571 -0.042893)
 22:    673.29   0.001267    6.40  0.000587  (-0.014498 -0.016334 -0.010493)
 23:    710.81   0.001578    7.98  0.000693  ( 0.026197 -0.000112 -0.002564)
 24:    761.83   0.000936    4.73  0.000384  ( 0.013206  0.013418  0.005393)
 25:    785.93   0.000179    0.90  0.000071  (-0.006057  0.001677  0.005618)
 26:    801.92   0.008473   42.82  0.003297  (-0.018895 -0.001068  0.054213)
 27:    821.87   0.008557   43.24  0.003249  (-0.052629  0.012059  0.018272)
 28:    835.24   0.007025   35.50  0.002625  ( 0.047094 -0.005333 -0.019452)
 29:    869.04   0.002664   13.47  0.000957  (-0.025315  0.002283  0.017627)
 30:    904.81   0.003321   16.78  0.001145  (-0.021202  0.026294  0.002086)
 31:    935.91   0.000969    4.90  0.000323  ( 0.006224 -0.014712  0.008240)
 32:    956.02   0.001619    8.18  0.000529  (-0.019687 -0.010336 -0.005839)
 33:   1010.78   0.011884   60.06  0.003669  ( 0.048151  0.008260 -0.035808)
 34:   1047.67   0.003374   17.05  0.001005  (-0.024012  0.019163  0.007828)
 35:   1084.38   0.010918   55.17  0.003142  ( 0.010203 -0.054544  0.007919)
 36:   1118.09   0.037437  189.19  0.010449  (-0.073771  0.069069 -0.015365)
 37:   1150.97   0.005844   29.53  0.001584  ( 0.039246  0.001142  0.006551)
 38:   1193.02   0.000612    3.09  0.000160  (-0.010173 -0.007166  0.002285)
 39:   1203.69   0.008970   45.33  0.002325  (-0.022112  0.042850  0.000636)
 40:   1242.91   0.004569   23.09  0.001147  (-0.027482  0.019793 -0.000097)
 41:   1246.50   0.010115   51.12  0.002532  (-0.037470  0.026702  0.020381)
 42:   1285.36   0.005817   29.40  0.001412  (-0.022515  0.000550 -0.030083)
 43:   1312.56   0.010800   54.58  0.002568  (-0.045574  0.018794  0.011721)
 44:   1329.21   0.002495   12.61  0.000586  (-0.009632  0.014817 -0.016536)
 45:   1360.59   0.033696  170.29  0.007728  (-0.061403  0.030359  0.055104)
 46:   1392.76   0.007020   35.47  0.001573  (-0.038251  0.010401 -0.001231)
 47:   1420.74   0.000515    2.60  0.000113  ( 0.000194  0.000821 -0.010606)
 48:   1436.76   0.003198   16.16  0.000695  (-0.022554  0.006285 -0.012100)
 49:   1445.85   0.004044   20.43  0.000873  ( 0.003986  0.017022 -0.023814)
 50:   1496.93   0.003467   17.52  0.000723  ( 0.026403  0.001511  0.004839)
 51:   1524.00   0.012788   64.63  0.002619  ( 0.038185 -0.020280 -0.027371)
 52:   1559.87   0.015528   78.47  0.003107  (-0.041318  0.033778 -0.016073)
 53:   1577.06   0.009098   45.98  0.001800  (-0.025758 -0.006659 -0.033053)
 54:   1603.14   0.082450  416.67  0.016050  (-0.115952 -0.027053 -0.043276)
 55:   2190.96   0.209339  1057.91  0.029817  (-0.139992  0.016089  0.099799)
 56:   2964.29   0.008762   44.28  0.000922  ( 0.025441 -0.002308  0.016427)
 57:   2999.32   0.010466   52.89  0.001089  (-0.032159 -0.003932  0.006271)
 58:   3010.46   0.004067   20.55  0.000422  (-0.004915  0.019876  0.001546)
 59:   3012.71   0.012604   63.70  0.001306  (-0.016582 -0.031905 -0.003557)
 60:   3027.92   0.004867   24.60  0.000502  (-0.018095  0.010151 -0.008434)
 61:   3071.73   0.004256   21.51  0.000432  ( 0.018365 -0.009649  0.001394)
 62:   3108.99   0.002815   14.22  0.000283  ( 0.007192  0.015164  0.000922)
 63:   3391.33   0.004196   21.20  0.000386  (-0.004817  0.007967  0.017303)
 64:   3470.15   0.009115   46.07  0.000820  (-0.004531  0.019785 -0.020193)
 65:   3667.66   0.003580   18.09  0.000305  ( 0.003439 -0.016943 -0.002398)

* The epsilon (eps) is given for a Dirac delta lineshape.
** The dipole moment derivative (T) already includes vibrational overlap.

The first frequency considered to be a vibration is 6
The total number of vibrations considered is 60


--------------------------
THERMOCHEMISTRY AT 298.15K
--------------------------

Temperature         ... 298.15 K
Pressure            ... 1.00 atm
Total Mass          ... 153.18 AMU

Throughout the following assumptions are being made:
  (1) The electronic state is orbitally nondegenerate
  (2) There are no thermally accessible electronically excited states
  (3) Hindered rotations indicated by low frequency modes are not
      treated as such but are treated as vibrations and this may
      cause some error
  (4) All equations used are the standard statistical mechanics
      equations for an ideal gas
  (5) All vibrations are strictly harmonic

freq.      53.09  E(vib)   ...       0.52 
freq.      75.79  E(vib)   ...       0.49 
freq.     140.13  E(vib)   ...       0.41 
freq.     160.49  E(vib)   ...       0.39 
freq.     248.02  E(vib)   ...       0.31 
freq.     271.08  E(vib)   ...       0.29 
freq.     293.70  E(vib)   ...       0.27 
freq.     319.88  E(vib)   ...       0.25 
freq.     386.09  E(vib)   ...       0.20 
freq.     416.89  E(vib)   ...       0.18 
freq.     420.41  E(vib)   ...       0.18 
freq.     445.16  E(vib)   ...       0.17 
freq.     470.37  E(vib)   ...       0.15 
freq.     516.80  E(vib)   ...       0.13 
freq.     571.08  E(vib)   ...       0.11 
freq.     619.36  E(vib)   ...       0.09 
freq.     673.29  E(vib)   ...       0.08 
freq.     710.81  E(vib)   ...       0.07 
freq.     761.83  E(vib)   ...       0.06 
freq.     785.93  E(vib)   ...       0.05 
freq.     801.92  E(vib)   ...       0.05 
freq.     821.87  E(vib)   ...       0.05 
freq.     835.24  E(vib)   ...       0.04 
freq.     869.04  E(vib)   ...       0.04 
freq.     904.81  E(vib)   ...       0.03 
freq.     935.91  E(vib)   ...       0.03 
freq.     956.02  E(vib)   ...       0.03 
freq.    1010.78  E(vib)   ...       0.02 
freq.    1047.67  E(vib)   ...       0.02 
freq.    1084.38  E(vib)   ...       0.02 
freq.    1118.09  E(vib)   ...       0.01 
freq.    1150.97  E(vib)   ...       0.01 
freq.    1193.02  E(vib)   ...       0.01 
freq.    1203.69  E(vib)   ...       0.01 
freq.    1242.91  E(vib)   ...       0.01 
freq.    1246.50  E(vib)   ...       0.01 
freq.    1285.36  E(vib)   ...       0.01 
freq.    1312.56  E(vib)   ...       0.01 
freq.    1329.21  E(vib)   ...       0.01 
freq.    1360.59  E(vib)   ...       0.01 
freq.    1392.76  E(vib)   ...       0.00 
freq.    1420.74  E(vib)   ...       0.00 
freq.    1436.76  E(vib)   ...       0.00 
freq.    1445.85  E(vib)   ...       0.00 
freq.    1496.93  E(vib)   ...       0.00 
freq.    1524.00  E(vib)   ...       0.00 
freq.    1559.87  E(vib)   ...       0.00 
freq.    1577.06  E(vib)   ...       0.00 
freq.    1603.14  E(vib)   ...       0.00 
freq.    2190.96  E(vib)   ...       0.00 
freq.    2964.29  E(vib)   ...       0.00 
freq.    2999.32  E(vib)   ...       0.00 
freq.    3010.46  E(vib)   ...       0.00 
freq.    3012.71  E(vib)   ...       0.00 
freq.    3027.92  E(vib)   ...       0.00 
freq.    3071.73  E(vib)   ...       0.00 
freq.    3108.99  E(vib)   ...       0.00 
freq.    3391.33  E(vib)   ...       0.00 
freq.    3470.15  E(vib)   ...       0.00 
freq.    3667.66  E(vib)   ...       0.00 

------------
INNER ENERGY
------------

The inner energy is: U= E(el) + E(ZPE) + E(vib) + E(rot) + E(trans)
    E(el)   - is the total energy from the electronic structure calculation
              = E(kin-el) + E(nuc-el) + E(el-el) + E(nuc-nuc)
    E(ZPE)  - the the zero temperature vibrational energy from the frequency calculation
    E(vib)  - the the finite temperature correction to E(ZPE) due to population
              of excited vibrational states
    E(rot)  - is the rotational thermal energy
    E(trans)- is the translational thermal energy

Summary of contributions to the inner energy U:
Electronic energy                ...   -516.19857374 Eh
Zero point energy                ...      0.17638346 Eh     110.68 kcal/mol
Thermal vibrational correction   ...      0.00774188 Eh       4.86 kcal/mol
Thermal rotational correction    ...      0.00141627 Eh       0.89 kcal/mol
Thermal translational correction ...      0.00141627 Eh       0.89 kcal/mol
-----------------------------------------------------------------------
Total thermal energy                   -516.01161585 Eh


Summary of corrections to the electronic energy:
(perhaps to be used in another calculation)
Total thermal correction                  0.01057443 Eh       6.64 kcal/mol
Non-thermal (ZPE) correction              0.17638346 Eh     110.68 kcal/mol
-----------------------------------------------------------------------
Total correction                          0.18695789 Eh     117.32 kcal/mol


--------
ENTHALPY
--------

The enthalpy is H = U + kB*T
                kB is Boltzmann's constant
Total free energy                 ...   -516.01161585 Eh 
Thermal Enthalpy correction       ...      0.00094421 Eh       0.59 kcal/mol
-----------------------------------------------------------------------
Total Enthalpy                    ...   -516.01067164 Eh


Note: Only C1 symmetry has been detected, increase convergence thresholds 
      if your molecule has a higher symmetry. Symmetry factor of 1.0 is   
      used for the rotational entropy correction. 
 

Note: Rotational entropy computed according to Herzberg 
Infrared and Raman Spectra, Chapter V,1, Van Nostrand Reinhold, 1945 
Point Group:  C1, Symmetry Number:   1  
Rotational constants in cm-1:     0.065982     0.024914     0.021798 

Vibrational entropy computed according to the QRRHO of S. Grimme
Chem.Eur.J. 2012 18 9955


-------
ENTROPY
-------

The entropy contributions are T*S = T*(S(el)+S(vib)+S(rot)+S(trans))
     S(el)   - electronic entropy
     S(vib)  - vibrational entropy
     S(rot)  - rotational entropy
     S(trans)- translational entropy
The entropies will be listed as multiplied by the temperature to get
units of energy

Electronic entropy                ...      0.00000000 Eh      0.00 kcal/mol
Vibrational entropy               ...      0.01288160 Eh      8.08 kcal/mol
Rotational entropy                ...      0.01434342 Eh      9.00 kcal/mol
Translational entropy             ...      0.01947521 Eh     12.22 kcal/mol
-----------------------------------------------------------------------
Final entropy term                ...      0.04670023 Eh     29.30 kcal/mol

In case the symmetry of your molecule has not been determined correctly
or in case you have a reason to use a different symmetry number we print 
out the resulting rotational entropy values for sn=1,12 :
 --------------------------------------------------------
|  sn= 1 | S(rot)=       0.01434342 Eh      9.00 kcal/mol|
|  sn= 2 | S(rot)=       0.01368896 Eh      8.59 kcal/mol|
|  sn= 3 | S(rot)=       0.01330613 Eh      8.35 kcal/mol|
|  sn= 4 | S(rot)=       0.01303451 Eh      8.18 kcal/mol|
|  sn= 5 | S(rot)=       0.01282382 Eh      8.05 kcal/mol|
|  sn= 6 | S(rot)=       0.01265168 Eh      7.94 kcal/mol|
|  sn= 7 | S(rot)=       0.01250613 Eh      7.85 kcal/mol|
|  sn= 8 | S(rot)=       0.01238005 Eh      7.77 kcal/mol|
|  sn= 9 | S(rot)=       0.01226884 Eh      7.70 kcal/mol|
|  sn=10 | S(rot)=       0.01216936 Eh      7.64 kcal/mol|
|  sn=11 | S(rot)=       0.01207937 Eh      7.58 kcal/mol|
|  sn=12 | S(rot)=       0.01199722 Eh      7.53 kcal/mol|
 --------------------------------------------------------


-------------------
GIBBS FREE ENERGY
-------------------

The Gibbs free energy is G = H - T*S

Total enthalpy                    ...   -516.01067164 Eh 
Total entropy correction          ...     -0.04670023 Eh    -29.30 kcal/mol
-----------------------------------------------------------------------
Final Gibbs free energy         ...   -516.05737187 Eh

For completeness - the Gibbs free energy minus the electronic energy
G-E(el)                           ...      0.14120187 Eh     88.61 kcal/mol



Timings for individual modules:

Sum of individual times         ...     3449.822 sec (=  57.497 min)
GTO integral calculation        ...        2.982 sec (=   0.050 min)   0.1 %
SCF iterations                  ...       52.962 sec (=   0.883 min)   1.5 %
SCF Gradient evaluation         ...       20.889 sec (=   0.348 min)   0.6 %
Geometry relaxation             ...        0.078 sec (=   0.001 min)   0.0 %
Numerical frequency calculation ...     3372.910 sec (=  56.215 min)  97.8 %
                             ****ORCA TERMINATED NORMALLY****
TOTAL RUN TIME: 0 days 0 hours 57 minutes 13 seconds 329 msec
