
                                 *****************
                                 * O   R   C   A *
                                 *****************

                                            #,                                       
                                            ###                                      
                                            ####                                     
                                            #####                                    
                                            ######                                   
                                           ########,                                 
                                     ,,################,,,,,                         
                               ,,#################################,,                 
                          ,,##########################################,,             
                       ,#########################################, ''#####,          
                    ,#############################################,,   '####,        
                  ,##################################################,,,,####,       
                ,###########''''           ''''###############################       
              ,#####''   ,,,,##########,,,,          '''####'''          '####       
            ,##' ,,,,###########################,,,                        '##       
           ' ,,###''''                  '''############,,,                           
         ,,##''                                '''############,,,,        ,,,,,,###''
      ,#''                                            '''#######################'''  
     '                                                          ''''####''''         
             ,#######,   #######,   ,#######,      ##                                
            ,#'     '#,  ##    ##  ,#'     '#,    #''#        ######   ,####,        
            ##       ##  ##   ,#'  ##            #'  '#       #        #'  '#        
            ##       ##  #######   ##           ,######,      #####,   #    #        
            '#,     ,#'  ##    ##  '#,     ,#' ,#      #,         ##   #,  ,#        
             '#######'   ##     ##  '#######'  #'      '#     #####' # '####'        



                  #######################################################
                  #                        -***-                        #
                  #          Department of theory and spectroscopy      #
                  #    Directorship and core code : Frank Neese         #
                  #        Max Planck Institute fuer Kohlenforschung    #
                  #                Kaiser Wilhelm Platz 1               #
                  #                 D-45470 Muelheim/Ruhr               #
                  #                      Germany                        #
                  #                                                     #
                  #                  All rights reserved                #
                  #                        -***-                        #
                  #######################################################


                         Program Version 5.0.1 -  RELEASE  -


 With contributions from (in alphabetic order):
   Daniel Aravena         : Magnetic Suceptibility
   Michael Atanasov       : Ab Initio Ligand Field Theory (pilot matlab implementation)
   Alexander A. Auer      : GIAO ZORA, VPT2 properties, NMR spectrum
   Ute Becker             : Parallelization
   Giovanni Bistoni       : ED, misc. LED, open-shell LED, HFLD
   Martin Brehm           : Molecular dynamics
   Dmytro Bykov           : SCF Hessian
   Vijay G. Chilkuri      : MRCI spin determinant printing, contributions to CSF-ICE
   Dipayan Datta          : RHF DLPNO-CCSD density
   Achintya Kumar Dutta   : EOM-CC, STEOM-CC
   Dmitry Ganyushin       : Spin-Orbit,Spin-Spin,Magnetic field MRCI
   Miquel Garcia          : C-PCM and meta-GGA Hessian, CC/C-PCM, Gaussian charge scheme
   Yang Guo               : DLPNO-NEVPT2, F12-NEVPT2, CIM, IAO-localization
   Andreas Hansen         : Spin unrestricted coupled pair/coupled cluster methods
   Benjamin Helmich-Paris : MC-RPA, TRAH-SCF, COSX integrals
   Lee Huntington         : MR-EOM, pCC
   Robert Izsak           : Overlap fitted RIJCOSX, COSX-SCS-MP3, EOM
   Marcus Kettner         : VPT2
   Christian Kollmar      : KDIIS, OOCD, Brueckner-CCSD(T), CCSD density, CASPT2, CASPT2-K
   Simone Kossmann        : Meta GGA functionals, TD-DFT gradient, OOMP2, MP2 Hessian
   Martin Krupicka        : Initial AUTO-CI
   Lucas Lang             : DCDCAS
   Marvin Lechner         : AUTO-CI (C++ implementation), FIC-MRCC
   Dagmar Lenk            : GEPOL surface, SMD
   Dimitrios Liakos       : Extrapolation schemes; Compound Job, initial MDCI parallelization
   Dimitrios Manganas     : Further ROCIS development; embedding schemes
   Dimitrios Pantazis     : SARC Basis sets
   Anastasios Papadopoulos: AUTO-CI, single reference methods and gradients
   Taras Petrenko         : DFT Hessian,TD-DFT gradient, ASA, ECA, R-Raman, ABS, FL, XAS/XES, NRVS
   Peter Pinski           : DLPNO-MP2, DLPNO-MP2 Gradient
   Christoph Reimann      : Effective Core Potentials
   Marius Retegan         : Local ZFS, SOC
   Christoph Riplinger    : Optimizer, TS searches, QM/MM, DLPNO-CCSD(T), (RO)-DLPNO pert. Triples
   Tobias Risthaus        : Range-separated hybrids, TD-DFT gradient, RPA, STAB
   Michael Roemelt        : Original ROCIS implementation
   Masaaki Saitow         : Open-shell DLPNO-CCSD energy and density
   Barbara Sandhoefer     : DKH picture change effects
   Avijit Sen             : IP-ROCIS
   Kantharuban Sivalingam : CASSCF convergence, NEVPT2, FIC-MRCI
   Bernardo de Souza      : ESD, SOC TD-DFT
   Georgi Stoychev        : AutoAux, RI-MP2 NMR, DLPNO-MP2 response
   Willem Van den Heuvel  : Paramagnetic NMR
   Boris Wezisla          : Elementary symmetry handling
   Frank Wennmohs         : Technical directorship


 We gratefully acknowledge several colleagues who have allowed us to
 interface, adapt or use parts of their codes:
   Stefan Grimme, W. Hujo, H. Kruse, P. Pracht,  : VdW corrections, initial TS optimization,
                  C. Bannwarth, S. Ehlert          DFT functionals, gCP, sTDA/sTD-DF
   Ed Valeev, F. Pavosevic, A. Kumar             : LibInt (2-el integral package), F12 methods
   Garnet Chan, S. Sharma, J. Yang, R. Olivares  : DMRG
   Ulf Ekstrom                                   : XCFun DFT Library
   Mihaly Kallay                                 : mrcc  (arbitrary order and MRCC methods)
   Jiri Pittner, Ondrej Demel                    : Mk-CCSD
   Frank Weinhold                                : gennbo (NPA and NBO analysis)
   Christopher J. Cramer and Donald G. Truhlar   : smd solvation model
   Lars Goerigk                                  : TD-DFT with DH, B97 family of functionals
   V. Asgeirsson, H. Jonsson                     : NEB implementation
   FAccTs GmbH                                   : IRC, NEB, NEB-TS, DLPNO-Multilevel, CI-OPT
                                                   MM, QMMM, 2- and 3-layer-ONIOM, Crystal-QMMM,
                                                   LR-CPCM, SF, NACMEs, symmetry and pop. for TD-DFT,
                                                   nearIR, NL-DFT gradient (VV10), updates on ESD,
                                                   ML-optimized integration grids
   S Lehtola, MJT Oliveira, MAL Marques          : LibXC Library
   Liviu Ungur et al                             : ANISO software


 Your calculation uses the libint2 library for the computation of 2-el integrals
 For citations please refer to: http://libint.valeyev.net

 Your ORCA version has been built with support for libXC version: 5.1.0
 For citations please refer to: https://tddft.org/programs/libxc/

 This ORCA versions uses:
   CBLAS   interface :  Fast vector & matrix operations
   LAPACKE interface :  Fast linear algebra routines
   SCALAPACK package :  Parallel linear algebra routines
   Shared memory     :  Shared parallel matrices
   BLAS/LAPACK       :  OpenBLAS 0.3.15  USE64BITINT DYNAMIC_ARCH NO_AFFINITY Haswell SINGLE_THREADED
        Core in use  :  Haswell
   Copyright (c) 2011-2014, The OpenBLAS Project


Your calculation utilizes the atom-pairwise dispersion correction
with the Becke-Johnson damping scheme (D3BJ)
Cite in your paper:
S.Grimme, S.Ehrlich, L.Goerigk, J Comput Chem, (2011), 32, 1456–1465 
S.Grimme, J.Antony, S.Ehrlich and H.Krieg, J.Chem.Phys., 132, (2010), 154104 
   

================================================================================

----- Orbital basis set information -----
Your calculation utilizes the basis: def2-TZVP
   F. Weigend and R. Ahlrichs, Phys. Chem. Chem. Phys. 7, 3297 (2005).

----- AuxJ basis set information -----
Your calculation utilizes the auxiliary basis: def2/J
   F. Weigend, Phys. Chem. Chem. Phys. 8, 1057 (2006).

================================================================================
                                        WARNINGS
                       Please study these warnings very carefully!
================================================================================


WARNING: The environment variable RSH_COMMAND is not set!
  ===> : All Displacements for the Numerical Hessian calculation
         will be started on localhost

WARNING: Geometry Optimization
  ===> : Switching off AutoStart
         For restart on a previous wavefunction, please use MOREAD

INFO   : the flag for use of the SHARK integral package has been found!

================================================================================
                                       INPUT FILE
================================================================================
NAME = ex.inp
|  1> ! PBE D3 def2-TZVP opt numfreq
|  2> 
|  3> %base "M0001"
|  4> %pal nprocs=8 end
|  5> %geom maxiter=75 end
|  6> * xyz -2 1
|  7> O     -2.053517000000   -2.034373000000    0.185438000000
|  8> O     -3.299854000000    0.572811000000   -0.572818000000
|  9> N      2.860805000000   -0.833072000000   -1.237455000000
| 10> C      2.152337000000    0.220042000000    0.941851000000
| 11> C      0.697822000000    0.310851000000    0.581319000000
| 12> C      3.082832000000    0.258048000000   -0.280072000000
| 13> C     -0.098603000000   -0.842826000000    0.551432000000
| 14> C      0.112931000000    1.512149000000    0.227344000000
| 15> C     -1.470338000000   -0.883949000000    0.171908000000
| 16> C     -1.232297000000    1.533165000000   -0.145563000000
| 17> C     -2.078509000000    0.390321000000   -0.200609000000
| 18> H      2.404826000000    1.051022000000    1.612914000000
| 19> H      2.339631000000   -0.693917000000    1.520319000000
| 20> H      4.119799000000    0.198321000000    0.068402000000
| 21> H      2.980176000000    1.212058000000   -0.809753000000
| 22> H      0.351118000000   -1.796109000000    0.827513000000
| 23> H      0.673739000000    2.437076000000    0.225255000000
| 24> H     -1.673913000000    2.489310000000   -0.421814000000
| 25> H      1.923336000000   -0.670522000000   -1.640807000000
| 26> H      2.685580000000   -1.690041000000   -0.706467000000
| 27> *
| 28> 
| 29>                          ****END OF INPUT****
================================================================================

                       *****************************
                       * Geometry Optimization Run *
                       *****************************

Geometry optimization settings:
Update method            Update   .... BFGS
Choice of coordinates    CoordSys .... Z-matrix Internals
Initial Hessian          InHess   .... Almoef's Model

Convergence Tolerances:
Energy Change            TolE     ....  5.0000e-06 Eh
Max. Gradient            TolMAXG  ....  3.0000e-04 Eh/bohr
RMS Gradient             TolRMSG  ....  1.0000e-04 Eh/bohr
Max. Displacement        TolMAXD  ....  4.0000e-03 bohr
RMS Displacement         TolRMSD  ....  2.0000e-03 bohr
Strict Convergence                ....  False
------------------------------------------------------------------------------
                        ORCA OPTIMIZATION COORDINATE SETUP
------------------------------------------------------------------------------

The optimization will be done in new redundant internal coordinates
Making redundant internal coordinates   ...  (new redundants) done
Evaluating the initial hessian          ...  (Almloef) done
Evaluating the coordinates              ...  done
Calculating the B-matrix                .... done
Calculating the G-matrix                .... done
Diagonalizing the G-matrix              .... done
Small eigenvalue found = 1.940e-02
The first mode is                       ....   44
The number of degrees of freedom        ....   54

    -----------------------------------------------------------------
                    Redundant Internal Coordinates


    -----------------------------------------------------------------
         Definition                    Initial Value    Approx d2E/dq
    -----------------------------------------------------------------
      1. B(C   4,C   3)                  1.5013         0.415143   
      2. B(C   5,N   2)                  1.4685         0.419442   
      3. B(C   5,C   3)                  1.5363         0.364965   
      4. B(C   6,C   4)                  1.4022         0.597419   
      5. B(C   7,C   4)                  1.3822         0.642928   
      6. B(C   8,C   6)                  1.4239         0.551711   
      7. B(C   8,O   0)                  1.2899         0.808410   
      8. B(C   9,C   7)                  1.3961         0.610915   
      9. B(C  10,C   9)                  1.4231         0.553272   
     10. B(C  10,C   8)                  1.4603         0.482634   
     11. B(C  10,O   1)                  1.2898         0.808675   
     12. B(H  11,C   3)                  1.0975         0.350257   
     13. B(H  12,C   3)                  1.0977         0.350010   
     14. B(H  13,C   5)                  1.0956         0.352790   
     15. B(H  14,C   5)                  1.0960         0.352238   
     16. B(H  15,C   6)                  1.0896         0.360636   
     17. B(H  16,C   7)                  1.0817         0.371296   
     18. B(H  17,C   9)                  1.0888         0.361650   
     19. B(H  18,N   2)                  1.0334         0.397031   
     20. B(H  19,N   2)                  1.0233         0.412145   
     21. A(H  18,N   2,H  19)          100.3073         0.296822   
     22. A(C   5,N   2,H  18)          105.9469         0.331080   
     23. A(C   5,N   2,H  19)          108.0508         0.333135   
     24. A(C   5,C   3,H  12)          109.6564         0.321579   
     25. A(C   4,C   3,H  12)          110.0119         0.328460   
     26. A(C   4,C   3,H  11)          108.9001         0.328499   
     27. A(C   5,C   3,H  11)          109.1614         0.321616   
     28. A(C   4,C   3,C   5)          113.2217         0.368503   
     29. A(H  11,C   3,H  12)          105.6002         0.288291   
     30. A(C   6,C   4,C   7)          117.9869         0.434004   
     31. A(C   3,C   4,C   7)          121.6040         0.406720   
     32. A(C   3,C   4,C   6)          120.3740         0.401485   
     33. A(C   3,C   5,H  14)          110.4372         0.321914   
     34. A(H  13,C   5,H  14)          106.8474         0.288903   
     35. A(N   2,C   5,H  14)          108.5131         0.327387   
     36. A(C   3,C   5,H  13)          108.5980         0.321996   
     37. A(N   2,C   5,H  13)          108.0573         0.327471   
     38. A(N   2,C   5,C   3)          114.1154         0.366850   
     39. A(C   8,C   6,H  15)          116.0975         0.346116   
     40. A(C   4,C   6,H  15)          118.6855         0.350790   
     41. A(C   4,C   6,C   8)          125.2141         0.422261   
     42. A(C   9,C   7,H  16)          119.0899         0.353858   
     43. A(C   4,C   7,H  16)          121.6195         0.356937   
     44. A(C   4,C   7,C   9)          119.2892         0.435753   
     45. A(O   0,C   8,C   6)          117.2926         0.442937   
     46. A(C   6,C   8,C  10)          116.3608         0.406550   
     47. A(O   0,C   8,C  10)          126.3463         0.432382   
     48. A(C  10,C   9,H  17)          117.0147         0.346444   
     49. A(C   7,C   9,H  17)          118.1506         0.352285   
     50. A(C   7,C   9,C  10)          124.8337         0.424165   
     51. A(C   8,C  10,C   9)          116.3121         0.406753   
     52. A(O   1,C  10,C   9)          117.4268         0.443190   
     53. A(O   1,C  10,C   8)          126.2610         0.432407   
     54. D(C   7,C   4,C   3,C   5)    -77.0410         0.012753   
     55. D(C   7,C   4,C   3,H  11)     44.5880         0.012753   
     56. D(C   6,C   4,C   3,C   5)    100.7609         0.012753   
     57. D(C   7,C   4,C   3,H  12)    159.8787         0.012753   
     58. D(C   6,C   4,C   3,H  12)    -22.3195         0.012753   
     59. D(C   6,C   4,C   3,H  11)   -137.6101         0.012753   
     60. D(N   2,C   5,C   3,H  11)    178.5033         0.010667   
     61. D(H  14,C   5,N   2,H  19)   -163.7013         0.015002   
     62. D(H  13,C   5,N   2,H  19)     80.7903         0.015002   
     63. D(H  14,C   5,C   3,H  12)   -174.1864         0.010667   
     64. D(H  14,C   5,C   3,H  11)    -58.9451         0.010667   
     65. D(C   3,C   5,N   2,H  18)     66.6840         0.015002   
     66. D(N   2,C   5,C   3,C   4)    -60.0145         0.010667   
     67. D(N   2,C   5,C   3,H  12)     63.2619         0.010667   
     68. D(H  13,C   5,C   3,H  12)    -57.3320         0.010667   
     69. D(H  13,C   5,C   3,H  11)     57.9093         0.010667   
     70. D(H  13,C   5,N   2,H  18)   -172.4209         0.015002   
     71. D(H  14,C   5,C   3,C   4)     62.5372         0.010667   
     72. D(H  13,C   5,C   3,C   4)    179.3915         0.010667   
     73. D(H  14,C   5,N   2,H  18)    -56.9125         0.015002   
     74. D(C   3,C   5,N   2,H  19)    -40.1048         0.015002   
     75. D(H  15,C   6,C   4,C   7)    179.9492         0.024593   
     76. D(H  15,C   6,C   4,C   3)      2.0693         0.024593   
     77. D(C   8,C   6,C   4,C   7)      0.5942         0.024593   
     78. D(C   8,C   6,C   4,C   3)   -177.2858         0.024593   
     79. D(H  16,C   7,C   4,C   6)   -179.7100         0.028737   
     80. D(H  16,C   7,C   4,C   3)     -1.8575         0.028737   
     81. D(C   9,C   7,C   4,C   6)     -0.1428         0.028737   
     82. D(C   9,C   7,C   4,C   3)    177.7096         0.028737   
     83. D(O   0,C   8,C   6,H  15)     -0.1352         0.020827   
     84. D(O   0,C   8,C   6,C   4)    179.2348         0.020827   
     85. D(C  10,C   8,C   6,H  15)   -179.9375         0.020827   
     86. D(C  10,C   8,C   6,C   4)     -0.5675         0.020827   
     87. D(H  17,C   9,C   7,H  16)     -0.3603         0.025781   
     88. D(H  17,C   9,C   7,C   4)   -179.9385         0.025781   
     89. D(C  10,C   9,C   7,H  16)    179.2744         0.025781   
     90. D(C  10,C   9,C   7,C   4)     -0.3038         0.025781   
     91. D(C   8,C  10,C   9,H  17)    179.9522         0.020949   
     92. D(C   8,C  10,C   9,C   7)      0.3137         0.020949   
     93. D(O   1,C  10,C   9,H  17)      0.0330         0.020949   
     94. D(O   1,C  10,C   9,C   7)   -179.6054         0.020949   
     95. D(C   9,C  10,C   8,C   6)      0.1063         0.015859   
     96. D(C   9,C  10,C   8,O   0)   -179.6756         0.015859   
     97. D(O   1,C  10,C   8,C   6)   -179.9827         0.015859   
     98. D(O   1,C  10,C   8,O   0)      0.2354         0.015859   
    -----------------------------------------------------------------

Number of atoms                         .... 20
Number of degrees of freedom            .... 98

         *************************************************************
         *                GEOMETRY OPTIMIZATION CYCLE   1            *
         *************************************************************
---------------------------------
CARTESIAN COORDINATES (ANGSTROEM)
---------------------------------
  O     -2.053517   -2.034373    0.185438
  O     -3.299854    0.572811   -0.572818
  N      2.860805   -0.833072   -1.237455
  C      2.152337    0.220042    0.941851
  C      0.697822    0.310851    0.581319
  C      3.082832    0.258048   -0.280072
  C     -0.098603   -0.842826    0.551432
  C      0.112931    1.512149    0.227344
  C     -1.470338   -0.883949    0.171908
  C     -1.232297    1.533165   -0.145563
  C     -2.078509    0.390321   -0.200609
  H      2.404826    1.051022    1.612914
  H      2.339631   -0.693917    1.520319
  H      4.119799    0.198321    0.068402
  H      2.980176    1.212058   -0.809753
  H      0.351118   -1.796109    0.827513
  H      0.673739    2.437076    0.225255
  H     -1.673913    2.489310   -0.421814
  H      1.923336   -0.670522   -1.640807
  H      2.685580   -1.690041   -0.706467

----------------------------
CARTESIAN COORDINATES (A.U.)
----------------------------
  NO LB      ZA    FRAG     MASS         X           Y           Z
   0 O     8.0000    0    15.999   -3.880585   -3.844408    0.350427
   1 O     8.0000    0    15.999   -6.235820    1.082456   -1.082469
   2 N     7.0000    0    14.007    5.406138   -1.574278   -2.338451
   3 C     6.0000    0    12.011    4.067327    0.415819    1.779840
   4 C     6.0000    0    12.011    1.318692    0.587423    1.098534
   5 C     6.0000    0    12.011    5.825708    0.487640   -0.529259
   6 C     6.0000    0    12.011   -0.186333   -1.592710    1.042055
   7 C     6.0000    0    12.011    0.213409    2.857547    0.429618
   8 C     6.0000    0    12.011   -2.778536   -1.670422    0.324859
   9 C     6.0000    0    12.011   -2.328704    2.897262   -0.275074
  10 C     6.0000    0    12.011   -3.927813    0.737600   -0.379096
  11 H     1.0000    0     1.008    4.544463    1.986144    3.047966
  12 H     1.0000    0     1.008    4.421262   -1.311313    2.872987
  13 H     1.0000    0     1.008    7.785292    0.374772    0.129261
  14 H     1.0000    0     1.008    5.631716    2.290458   -1.530211
  15 H     1.0000    0     1.008    0.663517   -3.394154    1.563773
  16 H     1.0000    0     1.008    1.273182    4.605406    0.425670
  17 H     1.0000    0     1.008   -3.163237    4.704114   -0.797113
  18 H     1.0000    0     1.008    3.634578   -1.267103   -3.100676
  19 H     1.0000    0     1.008    5.075011   -3.193715   -1.335029

--------------------------------
INTERNAL COORDINATES (ANGSTROEM)
--------------------------------
 O      0   0   0     0.000000000000     0.00000000     0.00000000
 O      1   0   0     2.987593762371     0.00000000     0.00000000
 N      1   2   0     5.255312483738    97.00195859     0.00000000
 C      3   1   2     2.521973561649    66.34657432    76.42656171
 C      4   3   1     1.501280614252    95.15818131   330.12711575
 C      3   1   2     1.468475757995    97.74203677    63.66483889
 C      5   4   3     1.402197073782   120.37399502    73.23224132
 C      5   4   3     1.382212960187   121.60398926   255.43038664
 C      1   2   3     1.289866732154    53.67402027    28.65436973
 C      8   5   4     1.396115924588   119.28918114   177.70960904
 C      2   1   3     1.289777402813    53.71845695   331.46070948
 H      4   3   1     1.097544534627   141.24949046   200.92354631
 H      4   3   1     1.097736454319    93.42646522    80.59160521
 H      6   3   1     1.095582950896   108.05731862   142.23547348
 H      6   3   1     1.096008802974   108.51312054   257.74388573
 H      7   5   4     1.089595417800   118.68553830     2.06928077
 H      8   5   4     1.081665351259   121.61952001   358.14246608
 H     10   8   5     1.088830825924   118.15057088   180.06153121
 H      3   1   2     1.033423177776    45.03644550   318.82627094
 H      3   1   2     1.023253596979    60.52310206   170.06605969

---------------------------
INTERNAL COORDINATES (A.U.)
---------------------------
 O      0   0   0     0.000000000000     0.00000000     0.00000000
 O      1   0   0     5.645734010294     0.00000000     0.00000000
 N      1   2   0     9.931101342443    97.00195859     0.00000000
 C      3   1   2     4.765839348506    66.34657432    76.42656171
 C      4   3   1     2.837009211102    95.15818131   330.12711575
 C      3   1   2     2.775017016912    97.74203677    63.66483889
 C      5   4   3     2.649768455234   120.37399502    73.23224132
 C      5   4   3     2.612003953511   121.60398926   255.43038664
 C      1   2   3     2.437494873027    53.67402027    28.65436973
 C      8   5   4     2.638276748678   119.28918114   177.70960904
 C      2   1   3     2.437326065036    53.71845695   331.46070948
 H      4   3   1     2.074058590227   141.24949046   200.92354631
 H      4   3   1     2.074421265885    93.42646522    80.59160521
 H      6   3   1     2.070351734187   108.05731862   142.23547348
 H      6   3   1     2.071156477988   108.51312054   257.74388573
 H      7   5   4     2.059036936418   118.68553830     2.06928077
 H      8   5   4     2.044051282431   121.61952001   358.14246608
 H     10   8   5     2.057592067167   118.15057088   180.06153121
 H      3   1   2     1.952886786444    45.03644550   318.82627094
 H      3   1   2     1.933669063840    60.52310206   170.06605969

---------------------
BASIS SET INFORMATION
---------------------
There are 4 groups of distinct atoms

 Group   1 Type O   : 11s6p2d1f contracted to 5s3p2d1f pattern {62111/411/11/1}
 Group   2 Type N   : 11s6p2d1f contracted to 5s3p2d1f pattern {62111/411/11/1}
 Group   3 Type C   : 11s6p2d1f contracted to 5s3p2d1f pattern {62111/411/11/1}
 Group   4 Type H   : 5s1p contracted to 3s1p pattern {311/1}

Atom   0O    basis set group =>   1
Atom   1O    basis set group =>   1
Atom   2N    basis set group =>   2
Atom   3C    basis set group =>   3
Atom   4C    basis set group =>   3
Atom   5C    basis set group =>   3
Atom   6C    basis set group =>   3
Atom   7C    basis set group =>   3
Atom   8C    basis set group =>   3
Atom   9C    basis set group =>   3
Atom  10C    basis set group =>   3
Atom  11H    basis set group =>   4
Atom  12H    basis set group =>   4
Atom  13H    basis set group =>   4
Atom  14H    basis set group =>   4
Atom  15H    basis set group =>   4
Atom  16H    basis set group =>   4
Atom  17H    basis set group =>   4
Atom  18H    basis set group =>   4
Atom  19H    basis set group =>   4
---------------------------------
AUXILIARY/J BASIS SET INFORMATION
---------------------------------
There are 4 groups of distinct atoms

 Group   1 Type O   : 12s5p4d2f1g contracted to 6s4p3d1f1g pattern {711111/2111/211/2/1}
 Group   2 Type N   : 12s5p4d2f1g contracted to 6s4p3d1f1g pattern {711111/2111/211/2/1}
 Group   3 Type C   : 12s5p4d2f1g contracted to 6s4p3d1f1g pattern {711111/2111/211/2/1}
 Group   4 Type H   : 5s2p1d contracted to 3s1p1d pattern {311/2/1}

Atom   0O    basis set group =>   1
Atom   1O    basis set group =>   1
Atom   2N    basis set group =>   2
Atom   3C    basis set group =>   3
Atom   4C    basis set group =>   3
Atom   5C    basis set group =>   3
Atom   6C    basis set group =>   3
Atom   7C    basis set group =>   3
Atom   8C    basis set group =>   3
Atom   9C    basis set group =>   3
Atom  10C    basis set group =>   3
Atom  11H    basis set group =>   4
Atom  12H    basis set group =>   4
Atom  13H    basis set group =>   4
Atom  14H    basis set group =>   4
Atom  15H    basis set group =>   4
Atom  16H    basis set group =>   4
Atom  17H    basis set group =>   4
Atom  18H    basis set group =>   4
Atom  19H    basis set group =>   4


           ************************************************************
           *        Program running with 8 parallel MPI-processes     *
           *              working on a common directory               *
           ************************************************************
------------------------------------------------------------------------------
                           ORCA GTO INTEGRAL CALCULATION
                           -- RI-GTO INTEGRALS CHOSEN --
------------------------------------------------------------------------------
------------------------------------------------------------------------------
                   ___                                                        
                  /   \      - P O W E R E D   B Y -                         
                 /     \                                                     
                 |  |  |   _    _      __       _____    __    __             
                 |  |  |  | |  | |    /  \     |  _  \  |  |  /  |          
                  \  \/   | |  | |   /    \    | | | |  |  | /  /          
                 / \  \   | |__| |  /  /\  \   | |_| |  |  |/  /          
                |  |  |   |  __  | /  /__\  \  |    /   |      \           
                |  |  |   | |  | | |   __   |  |    \   |  |\   \          
                \     /   | |  | | |  |  |  |  | |\  \  |  | \   \       
                 \___/    |_|  |_| |__|  |__|  |_| \__\ |__|  \__/        
                                                                              
                      - O R C A' S   B I G   F R I E N D -                    
                                      &                                       
                       - I N T E G R A L  F E E D E R -                       
                                                                              
 v1 FN, 2020, v2 2021                                                         
------------------------------------------------------------------------------


Reading SHARK input file M0001.SHARKINP.tmp ... ok
----------------------
SHARK INTEGRAL PACKAGE
----------------------

Number of atoms                             ...     20
Number of basis functions                   ...    395
Number of shells                            ...    157
Maximum angular momentum                    ...      3
Integral batch strategy                     ... SHARK/LIBINT Hybrid
RI-J (if used) integral strategy            ... SPLIT-RIJ (Revised 2003 algorithm where possible)
Printlevel                                  ...      1
Contraction scheme used                     ... SEGMENTED contraction
Coulomb Range Separation                    ... NOT USED
Exchange Range Separation                   ... NOT USED
Finite Nucleus Model                        ... NOT USED
Auxiliary Coulomb fitting basis             ... AVAILABLE
   # of basis functions in Aux-J            ...    638
   # of shells in Aux-J                     ...    210
   Maximum angular momentum in Aux-J        ...      4
Auxiliary J/K fitting basis                 ... NOT available
Auxiliary Correlation fitting basis         ... NOT available
Auxiliary 'external' fitting basis          ... NOT available
Integral threshold                          ...     2.500000e-11
Primitive cut-off                           ...     2.500000e-12
Primitive pair pre-selection threshold      ...     2.500000e-12

Calculating pre-screening integrals         ... done (  0.1 sec) Dimension = 157
Organizing shell pair data                  ... done (  0.1 sec)
Shell pair information
Total number of shell pairs                 ...     12403
Shell pairs after pre-screening             ...     10687
Total number of primitive shell pairs       ...     37944
Primitive shell pairs kept                  ...     23654
          la=0 lb=0:   2822 shell pairs
          la=1 lb=0:   3032 shell pairs
          la=1 lb=1:    833 shell pairs
          la=2 lb=0:   1532 shell pairs
          la=2 lb=1:    834 shell pairs
          la=2 lb=2:    221 shell pairs
          la=3 lb=0:    739 shell pairs
          la=3 lb=1:    408 shell pairs
          la=3 lb=2:    208 shell pairs
          la=3 lb=3:     58 shell pairs

Calculating one electron integrals          ... done (  0.0 sec)
Calculating RI/J V-Matrix + Cholesky decomp.... done (  0.0 sec)
Calculating Nuclear repulsion               ... done (  0.0 sec) ENN=    574.628780864959 Eh

SHARK setup successfully completed in   0.3 seconds

Maximum memory used throughout the entire GTOINT-calculation: 18.8 MB


           ************************************************************
           *        Program running with 8 parallel MPI-processes     *
           *              working on a common directory               *
           ************************************************************
-------------------------------------------------------------------------------
                                 ORCA SCF
-------------------------------------------------------------------------------

------------
SCF SETTINGS
------------
Hamiltonian:
 Density Functional     Method          .... DFT(GTOs)
 Exchange Functional    Exchange        .... PBE
   PBE kappa parameter   XKappa         ....  0.804000
   PBE mue parameter    XMuePBE         ....  0.219520
 Correlation Functional Correlation     .... PBE
   PBE beta parameter  CBetaPBE         ....  0.066725
 LDA part of GGA corr.  LDAOpt          .... PW91-LDA
 Gradients option       PostSCFGGA      .... off
   Density functional embedding theory  .... OFF
   NL short-range parameter             ....  6.400000
 RI-approximation to the Coulomb term is turned on
   Number of AuxJ basis functions       .... 638


General Settings:
 Integral files         IntName         .... M0001
 Hartree-Fock type      HFTyp           .... RHF
 Total Charge           Charge          ....   -2
 Multiplicity           Mult            ....    1
 Number of Electrons    NEL             ....   82
 Basis Dimension        Dim             ....  395
 Nuclear Repulsion      ENuc            ....    574.6287808650 Eh

Convergence Acceleration:
 DIIS                   CNVDIIS         .... on
   Start iteration      DIISMaxIt       ....    12
   Startup error        DIISStart       ....  0.200000
   # of expansion vecs  DIISMaxEq       ....     5
   Bias factor          DIISBfac        ....   1.050
   Max. coefficient     DIISMaxC        ....  10.000
 Trust-Rad. Augm. Hess. CNVTRAH         .... auto
   Auto Start mean grad. ratio tolernc. ....  1.125000
   Auto Start start iteration           ....    20
   Auto Start num. interpolation iter.  ....    10
   Max. Number of Micro iterations      ....    16
   Max. Number of Macro iterations      .... Maxiter - #DIIS iter
   Number of Davidson start vectors     ....     2
   Converg. threshold I  (grad. norm)   ....   1.000e-05
   Converg. threshold II (energy diff.) ....   1.000e-08
   Grad. Scal. Fac. for Micro threshold ....   0.100
   Minimum threshold for Micro iter.    ....   0.010
   NR start threshold (gradient norm)   ....   0.001
   Initial trust radius                 ....   0.400
   Minimum AH scaling param. (alpha)    ....   1.000
   Maximum AH scaling param. (alpha)    .... 1000.000
   Orbital update algorithm             .... Taylor
   White noise on init. David. guess    .... on
   Maximum white noise                  ....   0.010
   Quad. conv. algorithm                .... NR
 SOSCF                  CNVSOSCF        .... on
   Start iteration      SOSCFMaxIt      ....   150
   Startup grad/error   SOSCFStart      ....  0.003300
 Level Shifting         CNVShift        .... on
   Level shift para.    LevelShift      ....    0.2500
   Turn off err/grad.   ShiftErr        ....    0.0010
 Zerner damping         CNVZerner       .... off
 Static damping         CNVDamp         .... on
   Fraction old density DampFac         ....    0.7000
   Max. Damping (<1)    DampMax         ....    0.9800
   Min. Damping (>=0)   DampMin         ....    0.0000
   Turn off err/grad.   DampErr         ....    0.1000
 Fernandez-Rico         CNVRico         .... off

SCF Procedure:
 Maximum # iterations   MaxIter         ....   125
 SCF integral mode      SCFMode         .... Direct
   Integral package                     .... SHARK and LIBINT hybrid scheme
 Reset frequency        DirectResetFreq ....    20
 Integral Threshold     Thresh          ....  2.500e-11 Eh
 Primitive CutOff       TCut            ....  2.500e-12 Eh

Convergence Tolerance:
 Convergence Check Mode ConvCheckMode   .... Total+1el-Energy
 Convergence forced     ConvForced      .... 0
 Energy Change          TolE            ....  1.000e-08 Eh
 1-El. energy change                    ....  1.000e-05 Eh
 Orbital Gradient       TolG            ....  1.000e-05
 Orbital Rotation angle TolX            ....  1.000e-05
 DIIS Error             TolErr          ....  5.000e-07


Diagonalization of the overlap matrix:
Smallest eigenvalue                        ... 1.088e-05
Time for diagonalization                   ...    0.019 sec
Threshold for overlap eigenvalues          ... 1.000e-08
Number of eigenvalues below threshold      ... 0
Time for construction of square roots      ...    0.017 sec
Total time needed                          ...    0.036 sec

Time for model grid setup =    0.083 sec

------------------------------
INITIAL GUESS: MODEL POTENTIAL
------------------------------
Loading Hartree-Fock densities                     ... done
Calculating cut-offs                               ... done
Initializing the effective Hamiltonian             ... done
Setting up the integral package (SHARK)            ... done
Starting the Coulomb interaction                   ... done (   0.1 sec)
Reading the grid                                   ... done
Mapping shells                                     ... done
Starting the XC term evaluation                    ... done (   0.1 sec)
  promolecular density results
     # of electrons  =     80.002359756
     EX              =    -66.337699443
     EC              =     -2.663480340
     EX+EC           =    -69.001179784
Transforming the Hamiltonian                       ... done (   0.0 sec)
Diagonalizing the Hamiltonian                      ... done (   0.0 sec)
Back transforming the eigenvectors                 ... done (   0.0 sec)
Now organizing SCF variables                       ... done
                      ------------------
                      INITIAL GUESS DONE (   0.3 sec)
                      ------------------
-------------------
DFT GRID GENERATION
-------------------

General Integration Accuracy     IntAcc      ... 4.388
Radial Grid Type                 RadialGrid  ... OptM3 with GC (2021)
Angular Grid (max. ang.)         AngularGrid ... 4 (Lebedev-302)
Angular grid pruning method      GridPruning ... 4 (adaptive)
Weight generation scheme         WeightScheme... Becke
Basis function cutoff            BFCut       ... 1.0000e-11
Integration weight cutoff        WCut        ... 1.0000e-14
Angular grids for H and He will be reduced by one unit
Partially contracted basis set               ... off
Rotationally invariant grid construction     ... off

Total number of grid points                  ...    94973
Total number of batches                      ...     1496
Average number of points per batch           ...       63
Average number of grid points per atom       ...     4749
Time for grid setup =    0.476 sec

--------------
SCF ITERATIONS
--------------
ITER       Energy         Delta-E        Max-DP      RMS-DP      [F,P]     Damp
               ***  Starting incremental Fock matrix formation  ***
  0   -514.3783720331   0.000000000000 3.07841417  0.02701464  0.3461118 0.7000
  1   -514.6763069480  -0.297934914872 2.16344546  0.02295577  0.0973445 0.7000
                               ***Turning on DIIS***
  2   -514.7604611499  -0.084154201937 2.60787226  0.01910714  0.0306099 0.0000
  3   -514.9019499930  -0.141488843063 2.24752714  0.02385829  0.0652290 0.0000
  4   -514.9467325987  -0.044782605737 0.79656750  0.00771393  0.0458342 0.0000
  5   -514.9556794510  -0.008946852257 0.47958757  0.00452591  0.0047899 0.0000
  6   -514.9565571955  -0.000877744491 0.28618973  0.00258412  0.0041647 0.0000
                      *** Initiating the SOSCF procedure ***
                           *** Shutting down DIIS ***
                      *** Re-Reading the Fockian *** 
                      *** Removing any level shift *** 
ITER      Energy       Delta-E        Grad      Rot      Max-DP    RMS-DP
  7   -514.95685182  -0.0002946250  0.002094  0.002094  0.177691  0.001534
               *** Restarting incremental Fock matrix formation ***
  8   -514.95699939  -0.0001475721  0.001549  0.030985  0.494642  0.004527
  9   -514.95715233  -0.0001529389  0.000731  0.007064  0.064560  0.000785
 10   -514.95708445   0.0000678777  0.002227  0.005946  0.068480  0.000655
 11   -514.95716870  -0.0000842417  0.000340  0.001480  0.016784  0.000237
 12   -514.95714864   0.0000200547  0.000695  0.001771  0.014431  0.000186
 13   -514.95717237  -0.0000237297  0.000266  0.001790  0.017477  0.000145
 14   -514.95716430   0.0000080746  0.000542  0.001304  0.011791  0.000107
 15   -514.95717401  -0.0000097095  0.000046  0.000185  0.002481  0.000030
 16   -514.95717360   0.0000004013  0.000093  0.000109  0.002214  0.000016
 17   -514.95717414  -0.0000005391  0.000016  0.000081  0.001305  0.000020
 18   -514.95717412   0.0000000246  0.000019  0.000050  0.000688  0.000009
 19   -514.95717417  -0.0000000557  0.000004  0.000018  0.000527  0.000006
 20   -514.95717417   0.0000000060  0.000008  0.000013  0.000145  0.000002
                  ***Gradient check signals convergence***
              ***Rediagonalizing the Fockian in SOSCF/NRSCF***

               *****************************************************
               *                     SUCCESS                       *
               *           SCF CONVERGED AFTER  21 CYCLES          *
               *****************************************************


----------------
TOTAL SCF ENERGY
----------------

Total Energy       :         -514.95717418 Eh          -14012.69710 eV

Components:
Nuclear Repulsion  :          574.62878086 Eh           15636.44407 eV
Electronic Energy  :        -1089.58595505 Eh          -29649.14117 eV
One Electron Energy:        -1867.00947972 Eh          -50803.91076 eV
Two Electron Energy:          777.42352467 Eh           21154.76959 eV

Virial components:
Potential Energy   :        -1028.18947087 Eh          -27978.45790 eV
Kinetic Energy     :          513.23229668 Eh           13965.76080 eV
Virial Ratio       :            2.00336081


DFT components:
N(Alpha)           :       41.000033916306 electrons
N(Beta)            :       41.000033916306 electrons
N(Total)           :       82.000067832611 electrons
E(X)               :      -68.054027499243 Eh       
E(C)               :       -2.734733236619 Eh       
E(XC)              :      -70.788760735862 Eh       
DFET-embed. en.    :        0.000000000000 Eh       

---------------
SCF CONVERGENCE
---------------

  Last Energy change         ...   -1.5191e-08  Tolerance :   1.0000e-08
  Last MAX-Density change    ...    6.8006e-04  Tolerance :   1.0000e-07
  Last RMS-Density change    ...    7.0997e-06  Tolerance :   5.0000e-09
  Last Orbital Gradient      ...    1.0184e-06  Tolerance :   1.0000e-05
  Last Orbital Rotation      ...    3.7152e-06  Tolerance :   1.0000e-05

             **** THE GBW FILE WAS UPDATED (M0001.gbw) ****
             **** DENSITY M0001.scfp WAS UPDATED ****
             **** ENERGY FILE WAS UPDATED (M0001.en.tmp) ****
             **** THE GBW FILE WAS UPDATED (M0001.gbw) ****
             **** DENSITY M0001.scfp WAS UPDATED ****
----------------
ORBITAL ENERGIES
----------------

  NO   OCC          E(Eh)            E(eV) 
   0   2.0000     -18.334993      -498.9205 
   1   2.0000     -18.334049      -498.8948 
   2   2.0000     -13.727082      -373.5329 
   3   2.0000      -9.660805      -262.8839 
   4   2.0000      -9.618696      -261.7380 
   5   2.0000      -9.573266      -260.5018 
   6   2.0000      -9.573055      -260.4961 
   7   2.0000      -9.559057      -260.1152 
   8   2.0000      -9.550442      -259.8807 
   9   2.0000      -9.533937      -259.4316 
  10   2.0000      -9.533598      -259.4224 
  11   2.0000      -0.566403       -15.4126 
  12   2.0000      -0.543877       -14.7996 
  13   2.0000      -0.518951       -14.1214 
  14   2.0000      -0.445615       -12.1258 
  15   2.0000      -0.395672       -10.7668 
  16   2.0000      -0.331624        -9.0240 
  17   2.0000      -0.307106        -8.3568 
  18   2.0000      -0.271471        -7.3871 
  19   2.0000      -0.207831        -5.6554 
  20   2.0000      -0.195703        -5.3253 
  21   2.0000      -0.172417        -4.6917 
  22   2.0000      -0.142408        -3.8751 
  23   2.0000      -0.129247        -3.5170 
  24   2.0000      -0.116301        -3.1647 
  25   2.0000      -0.095397        -2.5959 
  26   2.0000      -0.073680        -2.0049 
  27   2.0000      -0.056952        -1.5497 
  28   2.0000      -0.044386        -1.2078 
  29   2.0000      -0.022742        -0.6188 
  30   2.0000      -0.012934        -0.3519 
  31   2.0000      -0.008472        -0.2305 
  32   2.0000       0.021442         0.5835 
  33   2.0000       0.025161         0.6847 
  34   2.0000       0.029999         0.8163 
  35   2.0000       0.058544         1.5931 
  36   2.0000       0.063278         1.7219 
  37   2.0000       0.142097         3.8667 
  38   2.0000       0.154231         4.1968 
  39   2.0000       0.176076         4.7913 
  40   2.0000       0.201317         5.4781 
  41   0.0000       0.238925         6.5015 
  42   0.0000       0.261866         7.1257 
  43   0.0000       0.276207         7.5160 
  44   0.0000       0.289973         7.8906 
  45   0.0000       0.303401         8.2560 
  46   0.0000       0.313471         8.5300 
  47   0.0000       0.321244         8.7415 
  48   0.0000       0.328828         8.9479 
  49   0.0000       0.338486         9.2107 
  50   0.0000       0.362363         9.8604 
  51   0.0000       0.365887         9.9563 
  52   0.0000       0.379205        10.3187 
  53   0.0000       0.395418        10.7599 
  54   0.0000       0.414318        11.2742 
  55   0.0000       0.418167        11.3789 
  56   0.0000       0.436424        11.8757 
  57   0.0000       0.449910        12.2427 
  58   0.0000       0.462038        12.5727 
  59   0.0000       0.467288        12.7155 
  60   0.0000       0.485924        13.2227 
  61   0.0000       0.490244        13.3402 
  62   0.0000       0.502166        13.6646 
  63   0.0000       0.508230        13.8296 
  64   0.0000       0.518136        14.0992 
  65   0.0000       0.534416        14.5422 
  66   0.0000       0.539948        14.6927 
  67   0.0000       0.545433        14.8420 
  68   0.0000       0.549002        14.9391 
  69   0.0000       0.556116        15.1327 
  70   0.0000       0.568844        15.4790 
  71   0.0000       0.584855        15.9147 
  72   0.0000       0.588352        16.0099 
  73   0.0000       0.595066        16.1926 
  74   0.0000       0.603603        16.4249 
  75   0.0000       0.615592        16.7511 
  76   0.0000       0.624925        17.0051 
  77   0.0000       0.627651        17.0793 
  78   0.0000       0.638190        17.3660 
  79   0.0000       0.642715        17.4892 
  80   0.0000       0.646187        17.5836 
  81   0.0000       0.655065        17.8252 
  82   0.0000       0.665547        18.1105 
  83   0.0000       0.671202        18.2643 
  84   0.0000       0.677311        18.4306 
  85   0.0000       0.683088        18.5878 
  86   0.0000       0.691620        18.8199 
  87   0.0000       0.697986        18.9932 
  88   0.0000       0.700826        19.0704 
  89   0.0000       0.708947        19.2914 
  90   0.0000       0.721736        19.6394 
  91   0.0000       0.729030        19.8379 
  92   0.0000       0.738593        20.0981 
  93   0.0000       0.747637        20.3442 
  94   0.0000       0.752633        20.4802 
  95   0.0000       0.766578        20.8596 
  96   0.0000       0.778936        21.1959 
  97   0.0000       0.795536        21.6476 
  98   0.0000       0.809927        22.0392 
  99   0.0000       0.815243        22.1839 
 100   0.0000       0.833171        22.6717 
 101   0.0000       0.845562        23.0089 
 102   0.0000       0.861973        23.4555 
 103   0.0000       0.867131        23.5958 
 104   0.0000       0.877268        23.8717 
 105   0.0000       0.909522        24.7493 
 106   0.0000       0.917585        24.9688 
 107   0.0000       0.925030        25.1713 
 108   0.0000       0.935257        25.4496 
 109   0.0000       0.942211        25.6389 
 110   0.0000       0.973048        26.4780 
 111   0.0000       0.976404        26.5693 
 112   0.0000       0.995463        27.0879 
 113   0.0000       1.018181        27.7061 
 114   0.0000       1.033245        28.1160 
 115   0.0000       1.041438        28.3390 
 116   0.0000       1.055584        28.7239 
 117   0.0000       1.062321        28.9072 
 118   0.0000       1.075435        29.2641 
 119   0.0000       1.098649        29.8958 
 120   0.0000       1.106991        30.1228 
 121   0.0000       1.115385        30.3512 
 122   0.0000       1.126374        30.6502 
 123   0.0000       1.136427        30.9238 
 124   0.0000       1.144465        31.1425 
 125   0.0000       1.156647        31.4740 
 126   0.0000       1.162615        31.6364 
 127   0.0000       1.180250        32.1162 
 128   0.0000       1.201834        32.7036 
 129   0.0000       1.218842        33.1664 
 130   0.0000       1.238749        33.7081 
 131   0.0000       1.242576        33.8122 
 132   0.0000       1.298173        35.3251 
 133   0.0000       1.321145        35.9502 
 134   0.0000       1.325790        36.0766 
 135   0.0000       1.341267        36.4977 
 136   0.0000       1.347212        36.6595 
 137   0.0000       1.364029        37.1171 
 138   0.0000       1.375373        37.4258 
 139   0.0000       1.399119        38.0720 
 140   0.0000       1.422185        38.6996 
 141   0.0000       1.443533        39.2805 
 142   0.0000       1.454427        39.5770 
 143   0.0000       1.468589        39.9623 
 144   0.0000       1.486091        40.4386 
 145   0.0000       1.492970        40.6258 
 146   0.0000       1.510218        41.0951 
 147   0.0000       1.517906        41.3043 
 148   0.0000       1.527898        41.5762 
 149   0.0000       1.545787        42.0630 
 150   0.0000       1.575963        42.8841 
 151   0.0000       1.580569        43.0095 
 152   0.0000       1.591162        43.2977 
 153   0.0000       1.604870        43.6707 
 154   0.0000       1.624072        44.1933 
 155   0.0000       1.628826        44.3226 
 156   0.0000       1.652385        44.9637 
 157   0.0000       1.675458        45.5915 
 158   0.0000       1.708493        46.4905 
 159   0.0000       1.725313        46.9482 
 160   0.0000       1.738458        47.3058 
 161   0.0000       1.763198        47.9790 
 162   0.0000       1.769916        48.1619 
 163   0.0000       1.785503        48.5860 
 164   0.0000       1.798437        48.9380 
 165   0.0000       1.803165        49.0666 
 166   0.0000       1.816871        49.4396 
 167   0.0000       1.823118        49.6096 
 168   0.0000       1.828385        49.7529 
 169   0.0000       1.840481        50.0820 
 170   0.0000       1.854704        50.4691 
 171   0.0000       1.880251        51.1642 
 172   0.0000       1.901978        51.7555 
 173   0.0000       1.915762        52.1305 
 174   0.0000       1.922593        52.3164 
 175   0.0000       1.938931        52.7610 
 176   0.0000       1.966602        53.5140 
 177   0.0000       1.980921        53.9036 
 178   0.0000       2.014537        54.8183 
 179   0.0000       2.026973        55.1568 
 180   0.0000       2.042556        55.5808 
 181   0.0000       2.055091        55.9219 
 182   0.0000       2.059452        56.0405 
 183   0.0000       2.064813        56.1864 
 184   0.0000       2.095559        57.0231 
 185   0.0000       2.120735        57.7081 
 186   0.0000       2.122918        57.7675 
 187   0.0000       2.159983        58.7761 
 188   0.0000       2.175483        59.1979 
 189   0.0000       2.187257        59.5183 
 190   0.0000       2.192551        59.6624 
 191   0.0000       2.199047        59.8391 
 192   0.0000       2.215917        60.2982 
 193   0.0000       2.245577        61.1053 
 194   0.0000       2.253848        61.3303 
 195   0.0000       2.268440        61.7274 
 196   0.0000       2.278317        61.9962 
 197   0.0000       2.300839        62.6090 
 198   0.0000       2.319753        63.1237 
 199   0.0000       2.324838        63.2621 
 200   0.0000       2.365323        64.3637 
 201   0.0000       2.383547        64.8596 
 202   0.0000       2.397214        65.2315 
 203   0.0000       2.410127        65.5829 
 204   0.0000       2.413052        65.6625 
 205   0.0000       2.425322        65.9964 
 206   0.0000       2.443283        66.4851 
 207   0.0000       2.465902        67.1006 
 208   0.0000       2.495460        67.9049 
 209   0.0000       2.527041        68.7643 
 210   0.0000       2.530252        68.8516 
 211   0.0000       2.548829        69.3572 
 212   0.0000       2.589349        70.4598 
 213   0.0000       2.612183        71.0811 
 214   0.0000       2.622288        71.3561 
 215   0.0000       2.648102        72.0585 
 216   0.0000       2.657006        72.3008 
 217   0.0000       2.658179        72.3327 
 218   0.0000       2.682098        72.9836 
 219   0.0000       2.696627        73.3789 
 220   0.0000       2.710515        73.7569 
 221   0.0000       2.746816        74.7447 
 222   0.0000       2.773182        75.4621 
 223   0.0000       2.790562        75.9351 
 224   0.0000       2.800533        76.2064 
 225   0.0000       2.808570        76.4251 
 226   0.0000       2.821028        76.7641 
 227   0.0000       2.848520        77.5122 
 228   0.0000       2.865803        77.9825 
 229   0.0000       2.869684        78.0881 
 230   0.0000       2.880341        78.3781 
 231   0.0000       2.898919        78.8836 
 232   0.0000       2.909051        79.1593 
 233   0.0000       2.927048        79.6490 
 234   0.0000       2.943532        80.0976 
 235   0.0000       2.946393        80.1754 
 236   0.0000       2.961630        80.5900 
 237   0.0000       2.978111        81.0385 
 238   0.0000       3.001164        81.6658 
 239   0.0000       3.018751        82.1444 
 240   0.0000       3.042573        82.7926 
 241   0.0000       3.048183        82.9453 
 242   0.0000       3.051025        83.0226 
 243   0.0000       3.072879        83.6173 
 244   0.0000       3.088354        84.0384 
 245   0.0000       3.101420        84.3939 
 246   0.0000       3.108289        84.5808 
 247   0.0000       3.119840        84.8952 
 248   0.0000       3.161794        86.0368 
 249   0.0000       3.164594        86.1130 
 250   0.0000       3.184536        86.6556 
 251   0.0000       3.190289        86.8122 
 252   0.0000       3.197151        86.9989 
 253   0.0000       3.218952        87.5921 
 254   0.0000       3.228029        87.8391 
 255   0.0000       3.255365        88.5830 
 256   0.0000       3.260623        88.7261 
 257   0.0000       3.273363        89.0727 
 258   0.0000       3.292257        89.5869 
 259   0.0000       3.297428        89.7276 
 260   0.0000       3.321362        90.3789 
 261   0.0000       3.338843        90.8545 
 262   0.0000       3.364133        91.5427 
 263   0.0000       3.379983        91.9740 
 264   0.0000       3.387801        92.1868 
 265   0.0000       3.395432        92.3944 
 266   0.0000       3.417104        92.9841 
 267   0.0000       3.422553        93.1324 
 268   0.0000       3.433341        93.4260 
 269   0.0000       3.447519        93.8118 
 270   0.0000       3.458422        94.1084 
 271   0.0000       3.467608        94.3584 
 272   0.0000       3.496878        95.1549 
 273   0.0000       3.501345        95.2764 
 274   0.0000       3.504112        95.3517 
 275   0.0000       3.523039        95.8668 
 276   0.0000       3.551498        96.6412 
 277   0.0000       3.571128        97.1753 
 278   0.0000       3.573888        97.2504 
 279   0.0000       3.578489        97.3756 
 280   0.0000       3.586861        97.6034 
 281   0.0000       3.611336        98.2694 
 282   0.0000       3.622934        98.5850 
 283   0.0000       3.649264        99.3015 
 284   0.0000       3.656011        99.4851 
 285   0.0000       3.672839        99.9430 
 286   0.0000       3.677927       100.0815 
 287   0.0000       3.705061       100.8198 
 288   0.0000       3.714513       101.0770 
 289   0.0000       3.727175       101.4216 
 290   0.0000       3.735193       101.6398 
 291   0.0000       3.743262       101.8593 
 292   0.0000       3.770887       102.6111 
 293   0.0000       3.781211       102.8920 
 294   0.0000       3.793519       103.2269 
 295   0.0000       3.802622       103.4746 
 296   0.0000       3.843927       104.5986 
 297   0.0000       3.871943       105.3609 
 298   0.0000       3.885613       105.7329 
 299   0.0000       3.910834       106.4192 
 300   0.0000       3.930453       106.9531 
 301   0.0000       3.970896       108.0536 
 302   0.0000       4.005261       108.9887 
 303   0.0000       4.017476       109.3211 
 304   0.0000       4.027008       109.5805 
 305   0.0000       4.054232       110.3213 
 306   0.0000       4.078849       110.9911 
 307   0.0000       4.098185       111.5173 
 308   0.0000       4.136984       112.5730 
 309   0.0000       4.164134       113.3118 
 310   0.0000       4.168235       113.4234 
 311   0.0000       4.205405       114.4349 
 312   0.0000       4.214419       114.6802 
 313   0.0000       4.251382       115.6860 
 314   0.0000       4.268728       116.1580 
 315   0.0000       4.287682       116.6737 
 316   0.0000       4.318986       117.5256 
 317   0.0000       4.346936       118.2862 
 318   0.0000       4.365791       118.7992 
 319   0.0000       4.375128       119.0533 
 320   0.0000       4.411677       120.0478 
 321   0.0000       4.423780       120.3772 
 322   0.0000       4.425989       120.4373 
 323   0.0000       4.459490       121.3489 
 324   0.0000       4.471447       121.6743 
 325   0.0000       4.516690       122.9054 
 326   0.0000       4.526151       123.1628 
 327   0.0000       4.570510       124.3699 
 328   0.0000       4.586547       124.8063 
 329   0.0000       4.595810       125.0584 
 330   0.0000       4.654564       126.6571 
 331   0.0000       4.685038       127.4864 
 332   0.0000       4.709798       128.1601 
 333   0.0000       4.794726       130.4711 
 334   0.0000       4.797869       130.5567 
 335   0.0000       4.805811       130.7728 
 336   0.0000       4.827509       131.3632 
 337   0.0000       4.890254       133.0706 
 338   0.0000       4.929214       134.1307 
 339   0.0000       4.941444       134.4635 
 340   0.0000       4.979522       135.4997 
 341   0.0000       4.979842       135.5084 
 342   0.0000       5.039589       137.1342 
 343   0.0000       5.049932       137.4156 
 344   0.0000       5.062400       137.7549 
 345   0.0000       5.096812       138.6913 
 346   0.0000       5.170135       140.6865 
 347   0.0000       5.184594       141.0800 
 348   0.0000       5.192552       141.2965 
 349   0.0000       5.257216       143.0561 
 350   0.0000       5.283894       143.7821 
 351   0.0000       5.313396       144.5849 
 352   0.0000       5.363464       145.9473 
 353   0.0000       5.436054       147.9226 
 354   0.0000       5.447340       148.2297 
 355   0.0000       5.482364       149.1827 
 356   0.0000       5.490658       149.4084 
 357   0.0000       5.497299       149.5891 
 358   0.0000       5.502064       149.7188 
 359   0.0000       5.612294       152.7183 
 360   0.0000       5.686981       154.7506 
 361   0.0000       5.690814       154.8549 
 362   0.0000       5.705401       155.2519 
 363   0.0000       5.815933       158.2596 
 364   0.0000       5.831972       158.6960 
 365   0.0000       5.858884       159.4283 
 366   0.0000       5.868315       159.6850 
 367   0.0000       6.109645       166.2519 
 368   0.0000       6.116992       166.4518 
 369   0.0000       6.362695       173.1377 
 370   0.0000       6.381994       173.6629 
 371   0.0000       6.542869       178.0405 
 372   0.0000       6.594210       179.4376 
 373   0.0000       6.626329       180.3116 
 374   0.0000       6.659537       181.2152 
 375   0.0000       6.757706       183.8865 
 376   0.0000       6.933214       188.6624 
 377   0.0000       7.001985       190.5337 
 378   0.0000       7.012566       190.8216 
 379   0.0000       7.101531       193.2425 
 380   0.0000       7.170282       195.1133 
 381   0.0000       7.258285       197.5080 
 382   0.0000       7.324495       199.3096 
 383   0.0000       7.470368       203.2790 
 384   0.0000      22.287107       606.4630 
 385   0.0000      22.412828       609.8840 
 386   0.0000      22.561471       613.9288 
 387   0.0000      22.789744       620.1405 
 388   0.0000      22.838025       621.4542 
 389   0.0000      23.048088       627.1703 
 390   0.0000      23.071475       627.8067 
 391   0.0000      23.573562       641.4692 
 392   0.0000      31.864706       867.0827 
 393   0.0000      43.828349      1192.6300 
 394   0.0000      44.016140      1197.7400 

                    ********************************
                    * MULLIKEN POPULATION ANALYSIS *
                    ********************************

-----------------------
MULLIKEN ATOMIC CHARGES
-----------------------
   0 O :   -0.565722
   1 O :   -0.564460
   2 N :   -0.499031
   3 C :   -0.194122
   4 C :    0.303267
   5 C :    0.085280
   6 C :   -0.385650
   7 C :   -0.246109
   8 C :    0.119367
   9 C :   -0.210125
  10 C :    0.080193
  11 H :   -0.009600
  12 H :    0.022093
  13 H :   -0.082429
  14 H :    0.019396
  15 H :   -0.099147
  16 H :   -0.078345
  17 H :   -0.086988
  18 H :    0.229072
  19 H :    0.163061
Sum of atomic charges:   -2.0000000

--------------------------------
MULLIKEN REDUCED ORBITAL CHARGES
--------------------------------
  0 O s       :     3.734383  s :     3.734383
      pz      :     1.604582  p :     4.803332
      px      :     1.737781
      py      :     1.460970
      dz2     :     0.002840  d :     0.026489
      dxz     :     0.001901
      dyz     :     0.006038
      dx2y2   :     0.007747
      dxy     :     0.007963
      f0      :     0.000155  f :     0.001518
      f+1     :     0.000056
      f-1     :     0.000162
      f+2     :     0.000111
      f-2     :     0.000204
      f+3     :     0.000422
      f-3     :     0.000408
  1 O s       :     3.734690  s :     3.734690
      pz      :     1.563175  p :     4.801767
      px      :     1.430442
      py      :     1.808150
      dz2     :     0.003385  d :     0.026485
      dxz     :     0.008131
      dyz     :     0.000685
      dx2y2   :     0.007965
      dxy     :     0.006320
      f0      :     0.000113  f :     0.001517
      f+1     :     0.000272
      f-1     :     0.000012
      f+2     :     0.000308
      f-2     :     0.000098
      f+3     :     0.000359
      f-3     :     0.000356
  2 N s       :     3.505356  s :     3.505356
      pz      :     1.407035  p :     3.949280
      px      :     1.429505
      py      :     1.112740
      dz2     :     0.007627  d :     0.042409
      dxz     :     0.006499
      dyz     :     0.010899
      dx2y2   :     0.012562
      dxy     :     0.004822
      f0      :     0.000337  f :     0.001985
      f+1     :     0.000124
      f-1     :     0.000231
      f+2     :     0.000657
      f-2     :     0.000317
      f+3     :     0.000143
      f-3     :     0.000176
  3 C s       :     3.081088  s :     3.081088
      pz      :     0.981459  p :     3.006982
      px      :     1.020695
      py      :     1.004827
      dz2     :     0.012969  d :     0.100569
      dxz     :     0.028276
      dyz     :     0.018199
      dx2y2   :     0.022249
      dxy     :     0.018877
      f0      :     0.000657  f :     0.005483
      f+1     :     0.001147
      f-1     :     0.000324
      f+2     :     0.001460
      f-2     :     0.000574
      f+3     :     0.000362
      f-3     :     0.000960
  4 C s       :     3.107233  s :     3.107233
      pz      :     0.948211  p :     2.447063
      px      :     0.761943
      py      :     0.736909
      dz2     :     0.010030  d :     0.132936
      dxz     :     0.019269
      dyz     :     0.031679
      dx2y2   :     0.041285
      dxy     :     0.030674
      f0      :     0.001156  f :     0.009501
      f+1     :     0.000938
      f-1     :     0.000874
      f+2     :     0.000894
      f-2     :     0.001514
      f+3     :     0.001143
      f-3     :     0.002982
  5 C s       :     2.987847  s :     2.987847
      pz      :     0.917718  p :     2.806936
      px      :     0.968739
      py      :     0.920479
      dz2     :     0.029308  d :     0.112557
      dxz     :     0.017705
      dyz     :     0.028577
      dx2y2   :     0.025729
      dxy     :     0.011237
      f0      :     0.001035  f :     0.007380
      f+1     :     0.000564
      f-1     :     0.001467
      f+2     :     0.001813
      f-2     :     0.001385
      f+3     :     0.000643
      f-3     :     0.000473
  6 C s       :     3.389602  s :     3.389602
      pz      :     1.167219  p :     2.912055
      px      :     1.013682
      py      :     0.731154
      dz2     :     0.003519  d :     0.077008
      dxz     :     0.017559
      dyz     :     0.010732
      dx2y2   :     0.021498
      dxy     :     0.023700
      f0      :     0.001072  f :     0.006985
      f+1     :     0.000956
      f-1     :     0.000478
      f+2     :     0.000619
      f-2     :     0.000889
      f+3     :     0.000964
      f-3     :     0.002006
  7 C s       :     3.243739  s :     3.243739
      pz      :     1.153883  p :     2.904130
      px      :     0.917489
      py      :     0.832759
      dz2     :     0.011920  d :     0.091338
      dxz     :     0.019095
      dyz     :     0.010900
      dx2y2   :     0.014604
      dxy     :     0.034818
      f0      :     0.000858  f :     0.006903
      f+1     :     0.000974
      f-1     :     0.000892
      f+2     :     0.000974
      f-2     :     0.000568
      f+3     :     0.000815
      f-3     :     0.001821
  8 C s       :     3.008243  s :     3.008243
      pz      :     0.906941  p :     2.709530
      px      :     0.878727
      py      :     0.923862
      dz2     :     0.010687  d :     0.147453
      dxz     :     0.022705
      dyz     :     0.038745
      dx2y2   :     0.033062
      dxy     :     0.042254
      f0      :     0.001640  f :     0.015408
      f+1     :     0.001229
      f-1     :     0.001160
      f+2     :     0.001453
      f-2     :     0.001751
      f+3     :     0.002198
      f-3     :     0.005976
  9 C s       :     3.251404  s :     3.251404
      pz      :     1.115129  p :     2.874278
      px      :     0.872486
      py      :     0.886663
      dz2     :     0.004626  d :     0.077383
      dxz     :     0.018906
      dyz     :     0.009079
      dx2y2   :     0.019909
      dxy     :     0.024864
      f0      :     0.001069  f :     0.007060
      f+1     :     0.001059
      f-1     :     0.000443
      f+2     :     0.000749
      f-2     :     0.000847
      f+3     :     0.000989
      f-3     :     0.001903
 10 C s       :     3.044840  s :     3.044840
      pz      :     0.911386  p :     2.711877
      px      :     0.876468
      py      :     0.924023
      dz2     :     0.015547  d :     0.147707
      dxz     :     0.041135
      dyz     :     0.017126
      dx2y2   :     0.037455
      dxy     :     0.036443
      f0      :     0.001375  f :     0.015383
      f+1     :     0.001926
      f-1     :     0.000685
      f+2     :     0.001913
      f-2     :     0.001895
      f+3     :     0.002477
      f-3     :     0.005114
 11 H s       :     0.988164  s :     0.988164
      pz      :     0.007631  p :     0.021435
      px      :     0.005646
      py      :     0.008158
 12 H s       :     0.956725  s :     0.956725
      pz      :     0.006961  p :     0.021182
      px      :     0.005123
      py      :     0.009098
 13 H s       :     1.060679  s :     1.060679
      pz      :     0.005196  p :     0.021750
      px      :     0.012428
      py      :     0.004126
 14 H s       :     0.959650  s :     0.959650
      pz      :     0.005978  p :     0.020954
      px      :     0.004704
      py      :     0.010271
 15 H s       :     1.076481  s :     1.076481
      pz      :     0.007204  p :     0.022666
      px      :     0.005253
      py      :     0.010208
 16 H s       :     1.055733  s :     1.055733
      pz      :     0.006916  p :     0.022612
      px      :     0.006409
      py      :     0.009287
 17 H s       :     1.064735  s :     1.064735
      pz      :     0.006998  p :     0.022253
      px      :     0.005629
      py      :     0.009626
 18 H s       :     0.736060  s :     0.736060
      pz      :     0.010846  p :     0.034868
      px      :     0.017408
      py      :     0.006615
 19 H s       :     0.801163  s :     0.801163
      pz      :     0.010572  p :     0.035776
      px      :     0.010250
      py      :     0.014954


                     *******************************
                     * LOEWDIN POPULATION ANALYSIS *
                     *******************************

----------------------
LOEWDIN ATOMIC CHARGES
----------------------
   0 O :   -0.159789
   1 O :   -0.157515
   2 N :   -0.199875
   3 C :   -0.286994
   4 C :   -0.263009
   5 C :   -0.373043
   6 C :   -0.227151
   7 C :   -0.273866
   8 C :   -0.411535
   9 C :   -0.241949
  10 C :   -0.410724
  11 H :    0.115744
  12 H :    0.115566
  13 H :    0.072299
  14 H :    0.108345
  15 H :    0.100488
  16 H :    0.099493
  17 H :    0.097550
  18 H :    0.161441
  19 H :    0.134524

-------------------------------
LOEWDIN REDUCED ORBITAL CHARGES
-------------------------------
  0 O s       :     3.437905  s :     3.437905
      pz      :     1.517441  p :     4.657268
      px      :     1.644946
      py      :     1.494881
      dz2     :     0.006474  d :     0.059807
      dxz     :     0.003682
      dyz     :     0.011682
      dx2y2   :     0.018741
      dxy     :     0.019228
      f0      :     0.000449  f :     0.004809
      f+1     :     0.000224
      f-1     :     0.000604
      f+2     :     0.000251
      f-2     :     0.000511
      f+3     :     0.001338
      f-3     :     0.001432
  1 O s       :     3.438292  s :     3.438292
      pz      :     1.492732  p :     4.654503
      px      :     1.476432
      py      :     1.685339
      dz2     :     0.006992  d :     0.059901
      dxz     :     0.016324
      dyz     :     0.001762
      dx2y2   :     0.018073
      dxy     :     0.016750
      f0      :     0.000408  f :     0.004819
      f+1     :     0.000783
      f-1     :     0.000050
      f+2     :     0.000867
      f-2     :     0.000352
      f+3     :     0.001126
      f-3     :     0.001232
  2 N s       :     3.119341  s :     3.119341
      pz      :     1.379746  p :     3.931723
      px      :     1.386435
      py      :     1.165543
      dz2     :     0.021124  d :     0.138412
      dxz     :     0.021553
      dyz     :     0.039858
      dx2y2   :     0.041039
      dxy     :     0.014838
      f0      :     0.001933  f :     0.010398
      f+1     :     0.000326
      f-1     :     0.001959
      f+2     :     0.001989
      f-2     :     0.001497
      f+3     :     0.001458
      f-3     :     0.001236
  3 C s       :     2.779465  s :     2.779465
      pz      :     1.001349  p :     3.049083
      px      :     1.039199
      py      :     1.008535
      dz2     :     0.048433  d :     0.420084
      dxz     :     0.127302
      dyz     :     0.095651
      dx2y2   :     0.083289
      dxy     :     0.065410
      f0      :     0.006248  f :     0.038362
      f+1     :     0.007951
      f-1     :     0.002317
      f+2     :     0.006068
      f-2     :     0.004829
      f+3     :     0.003747
      f-3     :     0.007203
  4 C s       :     2.705116  s :     2.705116
      pz      :     0.939227  p :     2.944350
      px      :     0.947504
      py      :     1.057618
      dz2     :     0.043672  d :     0.554392
      dxz     :     0.071905
      dyz     :     0.117536
      dx2y2   :     0.172172
      dxy     :     0.149107
      f0      :     0.004299  f :     0.059151
      f+1     :     0.004641
      f-1     :     0.005246
      f+2     :     0.005711
      f-2     :     0.010306
      f+3     :     0.009372
      f-3     :     0.019576
  5 C s       :     2.812882  s :     2.812882
      pz      :     1.017080  p :     3.016250
      px      :     1.017946
      py      :     0.981223
      dz2     :     0.104611  d :     0.492053
      dxz     :     0.093231
      dyz     :     0.132824
      dx2y2   :     0.117576
      dxy     :     0.043811
      f0      :     0.009208  f :     0.051858
      f+1     :     0.004602
      f-1     :     0.009714
      f+2     :     0.007558
      f-2     :     0.009751
      f+3     :     0.006373
      f-3     :     0.004652
  6 C s       :     2.773974  s :     2.773974
      pz      :     1.031361  p :     3.032108
      px      :     1.024457
      py      :     0.976290
      dz2     :     0.031100  d :     0.381112
      dxz     :     0.067043
      dyz     :     0.042285
      dx2y2   :     0.116247
      dxy     :     0.124437
      f0      :     0.003753  f :     0.039957
      f+1     :     0.004212
      f-1     :     0.002591
      f+2     :     0.004716
      f-2     :     0.005358
      f+3     :     0.007326
      f-3     :     0.012001
  7 C s       :     2.755071  s :     2.755071
      pz      :     1.029504  p :     3.045672
      px      :     1.031517
      py      :     0.984651
      dz2     :     0.049056  d :     0.428703
      dxz     :     0.080580
      dyz     :     0.042841
      dx2y2   :     0.110517
      dxy     :     0.145710
      f0      :     0.003028  f :     0.044419
      f+1     :     0.004188
      f-1     :     0.004430
      f+2     :     0.007657
      f-2     :     0.004312
      f+3     :     0.007935
      f-3     :     0.012868
  8 C s       :     2.744108  s :     2.744108
      pz      :     0.859485  p :     2.816195
      px      :     0.995288
      py      :     0.961423
      dz2     :     0.056902  d :     0.752055
      dxz     :     0.093773
      dyz     :     0.140223
      dx2y2   :     0.253932
      dxy     :     0.207224
      f0      :     0.006845  f :     0.099177
      f+1     :     0.006047
      f-1     :     0.008501
      f+2     :     0.011322
      f-2     :     0.013196
      f+3     :     0.016370
      f-3     :     0.036896
  9 C s       :     2.778503  s :     2.778503
      pz      :     1.015457  p :     3.038820
      px      :     1.043286
      py      :     0.980078
      dz2     :     0.032469  d :     0.384220
      dxz     :     0.075506
      dyz     :     0.035728
      dx2y2   :     0.116607
      dxy     :     0.123910
      f0      :     0.003407  f :     0.040406
      f+1     :     0.005186
      f-1     :     0.002522
      f+2     :     0.005244
      f-2     :     0.004575
      f+3     :     0.007514
      f-3     :     0.011959
 10 C s       :     2.744378  s :     2.744378
      pz      :     0.852822  p :     2.817025
      px      :     0.934872
      py      :     1.029331
      dz2     :     0.069249  d :     0.750075
      dxz     :     0.156861
      dyz     :     0.073392
      dx2y2   :     0.193346
      dxy     :     0.257225
      f0      :     0.006206  f :     0.099246
      f+1     :     0.011618
      f-1     :     0.004155
      f+2     :     0.015088
      f-2     :     0.011633
      f+3     :     0.018169
      f-3     :     0.032376
 11 H s       :     0.825095  s :     0.825095
      pz      :     0.019713  p :     0.059161
      px      :     0.015078
      py      :     0.024370
 12 H s       :     0.825941  s :     0.825941
      pz      :     0.017929  p :     0.058493
      px      :     0.013645
      py      :     0.026919
 13 H s       :     0.867175  s :     0.867175
      pz      :     0.014694  p :     0.060526
      px      :     0.033482
      py      :     0.012350
 14 H s       :     0.832120  s :     0.832120
      pz      :     0.017649  p :     0.059535
      px      :     0.013606
      py      :     0.028281
 15 H s       :     0.838740  s :     0.838740
      pz      :     0.019219  p :     0.060773
      px      :     0.014719
      py      :     0.026835
 16 H s       :     0.839123  s :     0.839123
      pz      :     0.018912  p :     0.061384
      px      :     0.017879
      py      :     0.024593
 17 H s       :     0.842748  s :     0.842748
      pz      :     0.018578  p :     0.059703
      px      :     0.015298
      py      :     0.025827
 18 H s       :     0.731697  s :     0.731697
      pz      :     0.030131  p :     0.106862
      px      :     0.057306
      py      :     0.019425
 19 H s       :     0.757437  s :     0.757437
      pz      :     0.036317  p :     0.108038
      px      :     0.029242
      py      :     0.042480


                      *****************************
                      * MAYER POPULATION ANALYSIS *
                      *****************************

  NA   - Mulliken gross atomic population
  ZA   - Total nuclear charge
  QA   - Mulliken gross atomic charge
  VA   - Mayer's total valence
  BVA  - Mayer's bonded valence
  FA   - Mayer's free valence

  ATOM       NA         ZA         QA         VA         BVA        FA
  0 O      8.5657     8.0000    -0.5657     1.9875     1.9875     0.0000
  1 O      8.5645     8.0000    -0.5645     1.9883     1.9883    -0.0000
  2 N      7.4990     7.0000    -0.4990     3.0084     3.0084    -0.0000
  3 C      6.1941     6.0000    -0.1941     3.6765     3.6765    -0.0000
  4 C      5.6967     6.0000     0.3033     3.3032     3.3032    -0.0000
  5 C      5.9147     6.0000     0.0853     3.5959     3.5959    -0.0000
  6 C      6.3857     6.0000    -0.3857     3.6730     3.6730    -0.0000
  7 C      6.2461     6.0000    -0.2461     3.7694     3.7694    -0.0000
  8 C      5.8806     6.0000     0.1194     4.0263     4.0263    -0.0000
  9 C      6.2101     6.0000    -0.2101     3.6079     3.6079     0.0000
 10 C      5.9198     6.0000     0.0802     4.0162     4.0162    -0.0000
 11 H      1.0096     1.0000    -0.0096     0.9884     0.9884     0.0000
 12 H      0.9779     1.0000     0.0221     1.0141     1.0141    -0.0000
 13 H      1.0824     1.0000    -0.0824     1.0583     1.0583    -0.0000
 14 H      0.9806     1.0000     0.0194     1.0446     1.0446    -0.0000
 15 H      1.0991     1.0000    -0.0991     1.0458     1.0458    -0.0000
 16 H      1.0783     1.0000    -0.0783     0.9618     0.9618    -0.0000
 17 H      1.0870     1.0000    -0.0870     1.0209     1.0209    -0.0000
 18 H      0.7709     1.0000     0.2291     0.9643     0.9643    -0.0000
 19 H      0.8369     1.0000     0.1631     0.9997     0.9997    -0.0000

  Mayer bond orders larger than 0.100000
B(  0-O ,  8-C ) :   1.8308 B(  1-O , 10-C ) :   1.8355 B(  2-N ,  5-C ) :   1.1280 
B(  2-N , 18-H ) :   0.9327 B(  2-N , 19-H ) :   0.9462 B(  3-C ,  4-C ) :   0.9546 
B(  3-C ,  5-C ) :   0.9714 B(  3-C , 11-H ) :   0.9010 B(  3-C , 12-H ) :   0.9481 
[...]
     31       0.067876   0.003699  -0.001710   0.000145  -0.000515   0.000078
     32      -0.042292  -0.096185  -0.001259   0.000149  -0.000474   0.000224
     33       0.112030  -0.010284   0.010485  -0.045860  -0.080146   0.243955
     34      -0.037034   0.018606   0.001196  -0.141251  -0.283236   0.780237
     35       0.027784  -0.002559  -0.006252  -0.070121  -0.143678   0.438671
     36      -0.085310  -0.184396  -0.009057  -0.046217  -0.161238  -0.066997
     37       0.009447  -0.038178  -0.000038   0.197167   0.688397   0.250387
     38       0.037072   0.030041   0.003201  -0.153255  -0.546435  -0.219725
     39       0.016086   0.014044   0.000260   0.899202  -0.271197   0.071677
     40      -0.033686   0.025309   0.003030  -0.075208   0.024368  -0.004923
     41       0.010949  -0.012624   0.037754   0.274053  -0.077291   0.017942
     42      -0.023806   0.041570  -0.019204  -0.033501   0.011907   0.008067
     43       0.003158  -0.022190   0.029503   0.089143  -0.062789  -0.077770
     44      -0.009004  -0.042442   0.024159  -0.061829   0.043146   0.052127
     45      -0.493171   0.295842   0.020096  -0.000561   0.023759   0.002756
     46      -0.242191   0.187610   0.004130   0.002565  -0.041250  -0.001575
     47      -0.117257   0.094776  -0.016999  -0.000592   0.011970   0.001497
     48      -0.068938   0.374403   0.007971  -0.001942   0.011421  -0.023048
     49       0.053304  -0.224719  -0.000442  -0.003693   0.020491  -0.033970
     50      -0.010466   0.116153   0.000799   0.000978   0.004237  -0.007299
     51      -0.026270  -0.194136   0.002408   0.002581  -0.002173  -0.002617
     52      -0.014164  -0.245117  -0.001885  -0.003981   0.006392   0.005586
     53      -0.008758  -0.053804   0.000263  -0.000119  -0.001515  -0.002382
     54       0.003928   0.009535  -0.043300  -0.023821   0.002144  -0.002788
     55      -0.020563   0.111830  -0.721780   0.002928  -0.001723   0.001576
     56      -0.012360  -0.022682   0.197114   0.000420  -0.002617   0.002751
     57      -0.021595   0.086080  -0.603126  -0.002301   0.002188  -0.000410
     58      -0.029869   0.025281  -0.203119  -0.001171   0.006613   0.002285
     59      -0.034161   0.023151  -0.152517  -0.001844   0.003688   0.002234
                 54         55         56         57         58         59    
      0       0.000017   0.000206  -0.000123   0.000060  -0.000226  -0.000050
      1       0.000043   0.000959  -0.000485   0.000588  -0.000288   0.000021
      2      -0.000031   0.000040  -0.000030  -0.000026  -0.000080  -0.000026
      3       0.000017   0.000394  -0.000084   0.001209  -0.000113   0.000057
      4      -0.000077  -0.000541  -0.000126  -0.000161   0.000049   0.000054
      5       0.000019   0.000121  -0.000073   0.000397  -0.000051   0.000030
      6       0.000059   0.000954  -0.001078   0.000391   0.062508   0.026797
      7      -0.000488   0.000668  -0.000581   0.000105   0.010018  -0.055766
      8       0.001666  -0.000335   0.000188   0.000076   0.002489   0.037883
      9      -0.000418   0.000041  -0.001429   0.000899  -0.000060  -0.000131
     10       0.010302  -0.004550   0.000192   0.001033  -0.000087   0.000479
     11      -0.001510   0.000839  -0.002768   0.001638  -0.000800  -0.000280
     12      -0.000205  -0.000468  -0.004517   0.002911  -0.000813   0.000082
     13       0.000348   0.000082  -0.001007  -0.001174  -0.001466  -0.000693
     14       0.000352   0.000065  -0.001439   0.000968  -0.000211  -0.000124
     15      -0.014820   0.002075  -0.001402   0.000965   0.003206   0.000679
     16       0.066523  -0.007744   0.001613   0.000544   0.002166  -0.002031
     17      -0.047922   0.005340  -0.001340  -0.000115  -0.000216   0.002933
     18       0.003610   0.025415  -0.024426   0.003888  -0.000949  -0.000119
     19      -0.007138  -0.048884   0.052517  -0.010214   0.002296  -0.000041
     20       0.001670   0.011945  -0.011988   0.002076   0.000795   0.000391
     21      -0.002604  -0.025566  -0.017518   0.027302  -0.000249  -0.000326
     22      -0.004909  -0.044027  -0.034934   0.045305   0.000215   0.000326
     23      -0.000475  -0.005803  -0.003979   0.006396  -0.000076  -0.000033
     24      -0.000231  -0.001175   0.001790   0.000603   0.000898   0.000247
     25      -0.000423  -0.003186   0.002617  -0.001234   0.000200  -0.000048
     26      -0.000016  -0.000232   0.000389   0.000275   0.000174   0.000043
     27      -0.000831  -0.013122  -0.018866  -0.032116   0.000202   0.000207
     28       0.001641   0.026029   0.035586   0.057920  -0.000057   0.000126
     29      -0.000213  -0.004145  -0.006112  -0.010637  -0.000023   0.000077
     30      -0.000078  -0.001457  -0.001909  -0.003897   0.000158  -0.000075
     31       0.000286   0.002247   0.000022  -0.000518  -0.000105  -0.000168
     32      -0.000011  -0.000488  -0.000316  -0.001289   0.000123  -0.000018
     33      -0.016739   0.008959   0.012061  -0.010110   0.002334   0.000208
     34      -0.064548   0.025493   0.024913  -0.022277  -0.000583   0.002712
     35      -0.038288   0.015073   0.015905  -0.013455  -0.001295   0.001102
     36       0.011260  -0.008768   0.010091  -0.005400   0.000270   0.002295
     37      -0.051222   0.028704  -0.024022   0.010866  -0.003695  -0.003088
     38       0.040223  -0.023094   0.021148  -0.009444   0.005055  -0.001911
     39       0.096618  -0.016172   0.018024  -0.014646  -0.017203  -0.006145
     40      -0.000856   0.001208  -0.001994   0.001339   0.000304  -0.000663
     41       0.020960  -0.003927   0.004346  -0.003686  -0.010072  -0.004185
     42       0.089899  -0.009245   0.001445   0.000948   0.002272  -0.005327
     43      -0.804145   0.090409  -0.018346  -0.006927  -0.008459   0.013981
     44       0.550711  -0.062368   0.012093   0.005006   0.007903  -0.012071
     45      -0.042476  -0.293986   0.307426  -0.056207   0.008810  -0.001113
     46       0.083648   0.591292  -0.624307   0.117616  -0.016263   0.003893
     47      -0.019831  -0.140924   0.147214  -0.026880   0.000797  -0.002299
     48       0.033192   0.306794   0.235927  -0.304009   0.001335  -0.000011
     49       0.056640   0.533874   0.417221  -0.522021   0.003074   0.000252
     50       0.007083   0.067778   0.053204  -0.068346   0.000252  -0.000161
     51       0.011922   0.172091   0.232078   0.362402  -0.000888   0.000101
     52      -0.022443  -0.325266  -0.438140  -0.676944   0.001837   0.000114
     53       0.003734   0.055655   0.075479   0.119344  -0.000169  -0.000242
     54       0.004008  -0.011653   0.013168  -0.005345  -0.956187  -0.219921
     55       0.001309  -0.001657   0.002284  -0.000457   0.041804  -0.016096
     56       0.003094  -0.001190   0.001950  -0.001782  -0.152790  -0.005657
     57      -0.003424  -0.000936   0.001641   0.000177   0.067522  -0.149292
     58       0.015017  -0.006326   0.005667  -0.001665  -0.191126   0.797043
     59      -0.017223   0.005463  -0.004035   0.000485   0.120594  -0.536681


-----------
IR SPECTRUM
-----------

 Mode   freq       eps      Int      T**2         TX        TY        TZ
       cm**-1   L/(mol*cm) km/mol    a.u.
----------------------------------------------------------------------------
  6:     52.25   0.000070    0.35  0.000416  ( 0.016265 -0.012056 -0.002459)
  7:     76.42   0.000287    1.45  0.001171  (-0.027818  0.006486  0.018837)
  8:    116.38   0.000138    0.70  0.000370  ( 0.018627 -0.004663 -0.001015)
  9:    154.29   0.000448    2.26  0.000905  ( 0.026034 -0.014115  0.005338)
 10:    236.05   0.000950    4.80  0.001256  ( 0.022422 -0.012385 -0.024484)
 11:    278.51   0.001413    7.14  0.001584  (-0.025253  0.030627 -0.002809)
 12:    331.01   0.000623    3.15  0.000588  (-0.007586 -0.011198 -0.020122)
 13:    340.21   0.001706    8.62  0.001565  ( 0.002158  0.006129 -0.039025)
 14:    351.51   0.002971   15.02  0.002638  ( 0.018483 -0.036708  0.030801)
 15:    408.73   0.001945    9.83  0.001485  ( 0.036673  0.006328  0.010007)
 16:    447.52   0.000753    3.81  0.000525  (-0.017987  0.014184  0.000824)
 17:    466.37   0.000739    3.73  0.000494  ( 0.013970 -0.017182 -0.002000)
 18:    508.69   0.003414   17.25  0.002094  (-0.045394 -0.001243 -0.005684)
 19:    576.37   0.001060    5.36  0.000574  ( 0.015434  0.016699  0.007557)
 20:    590.85   0.002382   12.04  0.001258  (-0.016661  0.001795  0.031262)
 21:    603.93   0.000414    2.09  0.000214  ( 0.005209 -0.012590  0.005325)
 22:    659.12   0.000176    0.89  0.000083  ( 0.006839  0.000767 -0.005989)
 23:    732.89   0.000152    0.77  0.000065  ( 0.005213 -0.003299  0.005178)
 24:    736.19   0.001562    7.89  0.000662  (-0.008704  0.022867 -0.007968)
 25:    759.46   0.011386   57.54  0.004679  (-0.013296  0.004887  0.066918)
 26:    780.86   0.000133    0.67  0.000053  (-0.005740  0.001879  0.004063)
 27:    827.48   0.001933    9.77  0.000729  (-0.011466  0.024073  0.004258)
 28:    851.76   0.004838   24.45  0.001772  (-0.020916  0.008023 -0.035645)
 29:    927.57   0.001897    9.59  0.000638  (-0.021474 -0.005416  0.012155)
 30:    947.85   0.011677   59.01  0.003844  (-0.027945  0.049332  0.025096)
 31:    995.17   0.015098   76.30  0.004734  ( 0.032978 -0.036021 -0.048469)
 32:   1042.43   0.009396   47.48  0.002813  ( 0.038572 -0.032080 -0.017202)
 33:   1069.15   0.002159   10.91  0.000630  ( 0.002722 -0.012374  0.021670)
 34:   1118.20   0.005675   28.68  0.001584  (-0.037888  0.010849  0.005527)
 35:   1137.00   0.001114    5.63  0.000306  ( 0.003012 -0.014786  0.008830)
 36:   1151.10   0.001584    8.01  0.000429  (-0.020305  0.002883 -0.002974)
 37:   1192.44   0.005764   29.13  0.001508  ( 0.017478 -0.017288 -0.030067)
 38:   1230.04   0.002887   14.59  0.000732  ( 0.024907 -0.008586  0.006192)
 39:   1267.04   0.010258   51.84  0.002526  ( 0.048084  0.004735  0.013856)
 40:   1277.17   0.005445   27.52  0.001330  (-0.010412  0.034841  0.002835)
 41:   1298.66   0.003214   16.24  0.000772  ( 0.006961 -0.018938 -0.019108)
 42:   1336.74   0.037544  189.73  0.008765  ( 0.085935  0.032536  0.017924)
 43:   1346.27   0.001149    5.81  0.000266  ( 0.002431  0.004068  0.015620)
 44:   1382.84   0.000173    0.87  0.000039  (-0.006132  0.000981  0.000613)
 45:   1403.90   0.000456    2.31  0.000101  ( 0.005696  0.008083  0.001914)
 46:   1410.69   0.005825   29.44  0.001289  ( 0.027474  0.022732  0.004122)
 47:   1490.61   0.021657  109.45  0.004534  ( 0.063877 -0.001856  0.021218)
 48:   1503.81   0.142474  720.01  0.029566  (-0.140002 -0.097681 -0.020579)
 49:   1506.43   0.101071  510.77  0.020937  (-0.136164  0.040332 -0.027750)
 50:   1606.69   0.001510    7.63  0.000293  (-0.010118 -0.009989  0.009549)
 51:   2780.66   0.145240  733.98  0.016300  (-0.127274 -0.002768  0.009663)
 52:   2810.35   0.149736  756.70  0.016627  ( 0.113551 -0.022846  0.056667)
 53:   2864.17   0.029130  147.21  0.003174  (-0.034984 -0.039062 -0.020592)
 54:   2945.99   0.010420   52.66  0.001104  (-0.008671  0.026240 -0.018442)
 55:   2960.75   0.019042   96.23  0.002007  (-0.017509 -0.041233  0.000518)
 56:   2964.71   0.028696  145.02  0.003021  (-0.036980  0.036519 -0.017871)
 57:   2995.39   0.034547  174.59  0.003599  (-0.014509  0.058212  0.000163)
 58:   3229.37   0.013290   67.16  0.001284  (-0.030566  0.012366  0.014037)
 59:   3346.15   0.007030   35.53  0.000656  ( 0.013586 -0.019547  0.009431)

* The epsilon (eps) is given for a Dirac delta lineshape.
** The dipole moment derivative (T) already includes vibrational overlap.

The first frequency considered to be a vibration is 6
The total number of vibrations considered is 54


--------------------------
THERMOCHEMISTRY AT 298.15K
--------------------------

Temperature         ... 298.15 K
Pressure            ... 1.00 atm
Total Mass          ... 151.17 AMU

Throughout the following assumptions are being made:
  (1) The electronic state is orbitally nondegenerate
  (2) There are no thermally accessible electronically excited states
  (3) Hindered rotations indicated by low frequency modes are not
      treated as such but are treated as vibrations and this may
      cause some error
  (4) All equations used are the standard statistical mechanics
      equations for an ideal gas
  (5) All vibrations are strictly harmonic

freq.      52.25  E(vib)   ...       0.52 
freq.      76.42  E(vib)   ...       0.49 
freq.     116.38  E(vib)   ...       0.44 
freq.     154.29  E(vib)   ...       0.40 
freq.     236.05  E(vib)   ...       0.32 
freq.     278.51  E(vib)   ...       0.28 
freq.     331.01  E(vib)   ...       0.24 
freq.     340.21  E(vib)   ...       0.23 
freq.     351.51  E(vib)   ...       0.23 
freq.     408.73  E(vib)   ...       0.19 
freq.     447.52  E(vib)   ...       0.17 
freq.     466.37  E(vib)   ...       0.16 
freq.     508.69  E(vib)   ...       0.14 
freq.     576.37  E(vib)   ...       0.11 
freq.     590.85  E(vib)   ...       0.10 
freq.     603.93  E(vib)   ...       0.10 
freq.     659.12  E(vib)   ...       0.08 
freq.     732.89  E(vib)   ...       0.06 
freq.     736.19  E(vib)   ...       0.06 
freq.     759.46  E(vib)   ...       0.06 
freq.     780.86  E(vib)   ...       0.05 
freq.     827.48  E(vib)   ...       0.04 
freq.     851.76  E(vib)   ...       0.04 
freq.     927.57  E(vib)   ...       0.03 
freq.     947.85  E(vib)   ...       0.03 
freq.     995.17  E(vib)   ...       0.02 
freq.    1042.43  E(vib)   ...       0.02 
freq.    1069.15  E(vib)   ...       0.02 
freq.    1118.20  E(vib)   ...       0.01 
freq.    1137.00  E(vib)   ...       0.01 
freq.    1151.10  E(vib)   ...       0.01 
freq.    1192.44  E(vib)   ...       0.01 
freq.    1230.04  E(vib)   ...       0.01 
freq.    1267.04  E(vib)   ...       0.01 
freq.    1277.17  E(vib)   ...       0.01 
freq.    1298.66  E(vib)   ...       0.01 
freq.    1336.74  E(vib)   ...       0.01 
freq.    1346.27  E(vib)   ...       0.01 
freq.    1382.84  E(vib)   ...       0.01 
freq.    1403.90  E(vib)   ...       0.00 
freq.    1410.69  E(vib)   ...       0.00 
freq.    1490.61  E(vib)   ...       0.00 
freq.    1503.81  E(vib)   ...       0.00 
freq.    1506.43  E(vib)   ...       0.00 
freq.    1606.69  E(vib)   ...       0.00 
freq.    2780.66  E(vib)   ...       0.00 
freq.    2810.35  E(vib)   ...       0.00 
freq.    2864.17  E(vib)   ...       0.00 
freq.    2945.99  E(vib)   ...       0.00 
freq.    2960.75  E(vib)   ...       0.00 
freq.    2964.71  E(vib)   ...       0.00 
freq.    2995.39  E(vib)   ...       0.00 
freq.    3229.37  E(vib)   ...       0.00 
freq.    3346.15  E(vib)   ...       0.00 

------------
INNER ENERGY
------------

The inner energy is: U= E(el) + E(ZPE) + E(vib) + E(rot) + E(trans)
    E(el)   - is the total energy from the electronic structure calculation
              = E(kin-el) + E(nuc-el) + E(el-el) + E(nuc-nuc)
    E(ZPE)  - the the zero temperature vibrational energy from the frequency calculation
    E(vib)  - the the finite temperature correction to E(ZPE) due to population
              of excited vibrational states
    E(rot)  - is the rotational thermal energy
    E(trans)- is the translational thermal energy

Summary of contributions to the inner energy U:
Electronic energy                ...   -514.98860202 Eh
Zero point energy                ...      0.14905176 Eh      93.53 kcal/mol
Thermal vibrational correction   ...      0.00757420 Eh       4.75 kcal/mol
Thermal rotational correction    ...      0.00141627 Eh       0.89 kcal/mol
Thermal translational correction ...      0.00141627 Eh       0.89 kcal/mol
-----------------------------------------------------------------------
Total thermal energy                   -514.82914351 Eh


Summary of corrections to the electronic energy:
(perhaps to be used in another calculation)
Total thermal correction                  0.01040674 Eh       6.53 kcal/mol
Non-thermal (ZPE) correction              0.14905176 Eh      93.53 kcal/mol
-----------------------------------------------------------------------
Total correction                          0.15945850 Eh     100.06 kcal/mol


--------
ENTHALPY
--------

The enthalpy is H = U + kB*T
                kB is Boltzmann's constant
Total free energy                 ...   -514.82914351 Eh 
Thermal Enthalpy correction       ...      0.00094421 Eh       0.59 kcal/mol
-----------------------------------------------------------------------
Total Enthalpy                    ...   -514.82819930 Eh


Note: Only C1 symmetry has been detected, increase convergence thresholds 
      if your molecule has a higher symmetry. Symmetry factor of 1.0 is   
      used for the rotational entropy correction. 
 

Note: Rotational entropy computed according to Herzberg 
Infrared and Raman Spectra, Chapter V,1, Van Nostrand Reinhold, 1945 
Point Group:  C1, Symmetry Number:   1  
Rotational constants in cm-1:     0.069304     0.023141     0.019307 

Vibrational entropy computed according to the QRRHO of S. Grimme
Chem.Eur.J. 2012 18 9955


-------
ENTROPY
-------

The entropy contributions are T*S = T*(S(el)+S(vib)+S(rot)+S(trans))
     S(el)   - electronic entropy
     S(vib)  - vibrational entropy
     S(rot)  - rotational entropy
     S(trans)- translational entropy
The entropies will be listed as multiplied by the temperature to get
units of energy

Electronic entropy                ...      0.00000000 Eh      0.00 kcal/mol
Vibrational entropy               ...      0.01270417 Eh      7.97 kcal/mol
Rotational entropy                ...      0.01441238 Eh      9.04 kcal/mol
Translational entropy             ...      0.01945645 Eh     12.21 kcal/mol
-----------------------------------------------------------------------
Final entropy term                ...      0.04657300 Eh     29.22 kcal/mol

In case the symmetry of your molecule has not been determined correctly
or in case you have a reason to use a different symmetry number we print 
out the resulting rotational entropy values for sn=1,12 :
 --------------------------------------------------------
|  sn= 1 | S(rot)=       0.01441238 Eh      9.04 kcal/mol|
|  sn= 2 | S(rot)=       0.01375793 Eh      8.63 kcal/mol|
|  sn= 3 | S(rot)=       0.01337509 Eh      8.39 kcal/mol|
|  sn= 4 | S(rot)=       0.01310347 Eh      8.22 kcal/mol|
|  sn= 5 | S(rot)=       0.01289278 Eh      8.09 kcal/mol|
|  sn= 6 | S(rot)=       0.01272064 Eh      7.98 kcal/mol|
|  sn= 7 | S(rot)=       0.01257509 Eh      7.89 kcal/mol|
|  sn= 8 | S(rot)=       0.01244901 Eh      7.81 kcal/mol|
|  sn= 9 | S(rot)=       0.01233780 Eh      7.74 kcal/mol|
|  sn=10 | S(rot)=       0.01223833 Eh      7.68 kcal/mol|
|  sn=11 | S(rot)=       0.01214834 Eh      7.62 kcal/mol|
|  sn=12 | S(rot)=       0.01206618 Eh      7.57 kcal/mol|
 --------------------------------------------------------


-------------------
GIBBS FREE ENERGY
-------------------

The Gibbs free energy is G = H - T*S

Total enthalpy                    ...   -514.82819930 Eh 
Total entropy correction          ...     -0.04657300 Eh    -29.22 kcal/mol
-----------------------------------------------------------------------
Final Gibbs free energy         ...   -514.87477230 Eh

For completeness - the Gibbs free energy minus the electronic energy
G-E(el)                           ...      0.11382972 Eh     71.43 kcal/mol



Timings for individual modules:

Sum of individual times         ...     3335.697 sec (=  55.595 min)
GTO integral calculation        ...       12.770 sec (=   0.213 min)   0.4 %
SCF iterations                  ...      268.404 sec (=   4.473 min)   8.0 %
SCF Gradient evaluation         ...      107.895 sec (=   1.798 min)   3.2 %
Geometry relaxation             ...        0.509 sec (=   0.008 min)   0.0 %
Numerical frequency calculation ...     2946.119 sec (=  49.102 min)  88.3 %
                             ****ORCA TERMINATED NORMALLY****
TOTAL RUN TIME: 0 days 0 hours 55 minutes 24 seconds 728 msec
