
                                 *****************
                                 * O   R   C   A *
                                 *****************

                                            #,                                       
                                            ###                                      
                                            ####                                     
                                            #####                                    
                                            ######                                   
                                           ########,                                 
                                     ,,################,,,,,                         
                               ,,#################################,,                 
                          ,,##########################################,,             
                       ,#########################################, ''#####,          
                    ,#############################################,,   '####,        
                  ,##################################################,,,,####,       
                ,###########''''           ''''###############################       
              ,#####''   ,,,,##########,,,,          '''####'''          '####       
            ,##' ,,,,###########################,,,                        '##       
           ' ,,###''''                  '''############,,,                           
         ,,##''                                '''############,,,,        ,,,,,,###''
      ,#''                                            '''#######################'''  
     '                                                          ''''####''''         
             ,#######,   #######,   ,#######,      ##                                
            ,#'     '#,  ##    ##  ,#'     '#,    #''#        ######   ,####,        
            ##       ##  ##   ,#'  ##            #'  '#       #        #'  '#        
            ##       ##  #######   ##           ,######,      #####,   #    #        
            '#,     ,#'  ##    ##  '#,     ,#' ,#      #,         ##   #,  ,#        
             '#######'   ##     ##  '#######'  #'      '#     #####' # '####'        



                  #######################################################
                  #                        -***-                        #
                  #          Department of theory and spectroscopy      #
                  #    Directorship and core code : Frank Neese         #
                  #        Max Planck Institute fuer Kohlenforschung    #
                  #                Kaiser Wilhelm Platz 1               #
                  #                 D-45470 Muelheim/Ruhr               #
                  #                      Germany                        #
                  #                                                     #
                  #                  All rights reserved                #
                  #                        -***-                        #
                  #######################################################


                         Program Version 5.0.1 -  RELEASE  -


 With contributions from (in alphabetic order):
   Daniel Aravena         : Magnetic Suceptibility
   Michael Atanasov       : Ab Initio Ligand Field Theory (pilot matlab implementation)
   Alexander A. Auer      : GIAO ZORA, VPT2 properties, NMR spectrum
   Ute Becker             : Parallelization
   Giovanni Bistoni       : ED, misc. LED, open-shell LED, HFLD
   Martin Brehm           : Molecular dynamics
   Dmytro Bykov           : SCF Hessian
   Vijay G. Chilkuri      : MRCI spin determinant printing, contributions to CSF-ICE
   Dipayan Datta          : RHF DLPNO-CCSD density
   Achintya Kumar Dutta   : EOM-CC, STEOM-CC
   Dmitry Ganyushin       : Spin-Orbit,Spin-Spin,Magnetic field MRCI
   Miquel Garcia          : C-PCM and meta-GGA Hessian, CC/C-PCM, Gaussian charge scheme
   Yang Guo               : DLPNO-NEVPT2, F12-NEVPT2, CIM, IAO-localization
   Andreas Hansen         : Spin unrestricted coupled pair/coupled cluster methods
   Benjamin Helmich-Paris : MC-RPA, TRAH-SCF, COSX integrals
   Lee Huntington         : MR-EOM, pCC
   Robert Izsak           : Overlap fitted RIJCOSX, COSX-SCS-MP3, EOM
   Marcus Kettner         : VPT2
   Christian Kollmar      : KDIIS, OOCD, Brueckner-CCSD(T), CCSD density, CASPT2, CASPT2-K
   Simone Kossmann        : Meta GGA functionals, TD-DFT gradient, OOMP2, MP2 Hessian
   Martin Krupicka        : Initial AUTO-CI
   Lucas Lang             : DCDCAS
   Marvin Lechner         : AUTO-CI (C++ implementation), FIC-MRCC
   Dagmar Lenk            : GEPOL surface, SMD
   Dimitrios Liakos       : Extrapolation schemes; Compound Job, initial MDCI parallelization
   Dimitrios Manganas     : Further ROCIS development; embedding schemes
   Dimitrios Pantazis     : SARC Basis sets
   Anastasios Papadopoulos: AUTO-CI, single reference methods and gradients
   Taras Petrenko         : DFT Hessian,TD-DFT gradient, ASA, ECA, R-Raman, ABS, FL, XAS/XES, NRVS
   Peter Pinski           : DLPNO-MP2, DLPNO-MP2 Gradient
   Christoph Reimann      : Effective Core Potentials
   Marius Retegan         : Local ZFS, SOC
   Christoph Riplinger    : Optimizer, TS searches, QM/MM, DLPNO-CCSD(T), (RO)-DLPNO pert. Triples
   Tobias Risthaus        : Range-separated hybrids, TD-DFT gradient, RPA, STAB
   Michael Roemelt        : Original ROCIS implementation
   Masaaki Saitow         : Open-shell DLPNO-CCSD energy and density
   Barbara Sandhoefer     : DKH picture change effects
   Avijit Sen             : IP-ROCIS
   Kantharuban Sivalingam : CASSCF convergence, NEVPT2, FIC-MRCI
   Bernardo de Souza      : ESD, SOC TD-DFT
   Georgi Stoychev        : AutoAux, RI-MP2 NMR, DLPNO-MP2 response
   Willem Van den Heuvel  : Paramagnetic NMR
   Boris Wezisla          : Elementary symmetry handling
   Frank Wennmohs         : Technical directorship


 We gratefully acknowledge several colleagues who have allowed us to
 interface, adapt or use parts of their codes:
   Stefan Grimme, W. Hujo, H. Kruse, P. Pracht,  : VdW corrections, initial TS optimization,
                  C. Bannwarth, S. Ehlert          DFT functionals, gCP, sTDA/sTD-DF
   Ed Valeev, F. Pavosevic, A. Kumar             : LibInt (2-el integral package), F12 methods
   Garnet Chan, S. Sharma, J. Yang, R. Olivares  : DMRG
   Ulf Ekstrom                                   : XCFun DFT Library
   Mihaly Kallay                                 : mrcc  (arbitrary order and MRCC methods)
   Jiri Pittner, Ondrej Demel                    : Mk-CCSD
   Frank Weinhold                                : gennbo (NPA and NBO analysis)
   Christopher J. Cramer and Donald G. Truhlar   : smd solvation model
   Lars Goerigk                                  : TD-DFT with DH, B97 family of functionals
   V. Asgeirsson, H. Jonsson                     : NEB implementation
   FAccTs GmbH                                   : IRC, NEB, NEB-TS, DLPNO-Multilevel, CI-OPT
                                                   MM, QMMM, 2- and 3-layer-ONIOM, Crystal-QMMM,
                                                   LR-CPCM, SF, NACMEs, symmetry and pop. for TD-DFT,
                                                   nearIR, NL-DFT gradient (VV10), updates on ESD,
                                                   ML-optimized integration grids
   S Lehtola, MJT Oliveira, MAL Marques          : LibXC Library
   Liviu Ungur et al                             : ANISO software


 Your calculation uses the libint2 library for the computation of 2-el integrals
 For citations please refer to: http://libint.valeyev.net

 Your ORCA version has been built with support for libXC version: 5.1.0
 For citations please refer to: https://tddft.org/programs/libxc/

 This ORCA versions uses:
   CBLAS   interface :  Fast vector & matrix operations
   LAPACKE interface :  Fast linear algebra routines
   SCALAPACK package :  Parallel linear algebra routines
   Shared memory     :  Shared parallel matrices
   BLAS/LAPACK       :  OpenBLAS 0.3.15  USE64BITINT DYNAMIC_ARCH NO_AFFINITY Haswell SINGLE_THREADED
        Core in use  :  Haswell
   Copyright (c) 2011-2014, The OpenBLAS Project


Your calculation utilizes the atom-pairwise dispersion correction
with the Becke-Johnson damping scheme (D3BJ)
Cite in your paper:
S.Grimme, S.Ehrlich, L.Goerigk, J Comput Chem, (2011), 32, 1456–1465 
S.Grimme, J.Antony, S.Ehrlich and H.Krieg, J.Chem.Phys., 132, (2010), 154104 
   

================================================================================

----- Orbital basis set information -----
Your calculation utilizes the basis: def2-TZVP
   F. Weigend and R. Ahlrichs, Phys. Chem. Chem. Phys. 7, 3297 (2005).

----- AuxJ basis set information -----
Your calculation utilizes the auxiliary basis: def2/J
   F. Weigend, Phys. Chem. Chem. Phys. 8, 1057 (2006).

================================================================================
                                        WARNINGS
                       Please study these warnings very carefully!
================================================================================


WARNING: your system is open-shell and RHF/RKS was chosen
  ===> : WILL SWITCH to UHF/UKS


WARNING: The environment variable RSH_COMMAND is not set!
  ===> : All Displacements for the Numerical Hessian calculation
         will be started on localhost

WARNING: Geometry Optimization
  ===> : Switching off AutoStart
         For restart on a previous wavefunction, please use MOREAD

INFO   : the flag for use of the SHARK integral package has been found!

================================================================================
                                       INPUT FILE
================================================================================
NAME = ex.inp
|  1> ! PBE D3 def2-TZVP opt numfreq 
|  2> %base "3_deprotonated"
|  3> %pal nprocs=3 end
|  4> %geom maxiter=75 end
|  5> *xyz -1 2 
|  6>   O   2.32742373363652     -1.92296901926553     -0.14510670112372
|  7>   O   3.27257483178040      0.69075840520574     -0.70160130916183
|  8>   N   -3.03424044846660      0.41737487258160     -1.29463631810958
|  9>   C   -2.09804928334194     -0.15885167822058      1.00403046014118
| 10>   C   -0.66118131768954      0.07739410877471      0.61815230082648
| 11>   C   -2.98522545699860     -0.55630919070486     -0.19634063491257
| 12>   C   0.21856536098093     -1.00597095960665      0.43546878580049
| 13>   C   -0.17085634751838      1.36218820991160      0.35634815063573
| 14>   C   1.53147242775745     -0.82465504973994      0.00984421729199
| 15>   C   1.14733479558003      1.55991556909200     -0.06906527467715
| 16>   C   2.04738384614087      0.48881163750738     -0.26602041116245
| 17>   H   -2.51580192464398      0.75806194690122      1.45815859381416
| 18>   H   -2.16896912698959     -0.95395272365839      1.76903925213443
| 19>   H   -4.01893508216833     -0.74198685435500      0.14548071365073
| 20>   H   -2.61053596290720     -1.50643909630929     -0.61113943522606
| 21>   H   -0.11652741239535     -2.02984172639513      0.62942511677987
| 22>   H   -0.82655632828422      2.22709579208997      0.50133896634503
| 23>   H   1.52537598091597      2.56648502414001     -0.26311186386335
| 24>   H   -2.06428147515853      0.61029148914968     -1.57144998365494
| 25>   H   -3.37015308397725      1.31014820723933     -0.91815495057564
| 26>   H   3.23697617560149     -1.58815594574024     -0.39770924860305
| 27>   Cu  4.91115609814587     -0.28233301859764     -0.46978042634972
| 28> **                         ****END OF INPUT****
================================================================================

                       *****************************
                       * Geometry Optimization Run *
                       *****************************

Geometry optimization settings:
Update method            Update   .... BFGS
Choice of coordinates    CoordSys .... Z-matrix Internals
Initial Hessian          InHess   .... Almoef's Model

Convergence Tolerances:
Energy Change            TolE     ....  5.0000e-06 Eh
Max. Gradient            TolMAXG  ....  3.0000e-04 Eh/bohr
RMS Gradient             TolRMSG  ....  1.0000e-04 Eh/bohr
Max. Displacement        TolMAXD  ....  4.0000e-03 bohr
RMS Displacement         TolRMSD  ....  2.0000e-03 bohr
Strict Convergence                ....  False
------------------------------------------------------------------------------
                        ORCA OPTIMIZATION COORDINATE SETUP
------------------------------------------------------------------------------

The optimization will be done in new redundant internal coordinates
Making redundant internal coordinates   ...  (new redundants) done
Evaluating the initial hessian          ...  (Almloef) done
Evaluating the coordinates              ...  done
Calculating the B-matrix                .... done
Calculating the G-matrix                .... done
Diagonalizing the G-matrix              .... done
Small eigenvalue found = 1.743e-02
Small eigenvalue found = 2.827e-02
The first mode is                       ....   52
The number of degrees of freedom        ....   60

    -----------------------------------------------------------------
                    Redundant Internal Coordinates


    -----------------------------------------------------------------
         Definition                    Initial Value    Approx d2E/dq
    -----------------------------------------------------------------
      1. B(C   4,C   3)                  1.5064         0.407377   
      2. B(C   5,N   2)                  1.4686         0.419287   
      3. B(C   5,C   3)                  1.5447         0.354000   
      4. B(C   6,C   4)                  1.4075         0.585931   
      5. B(C   7,C   4)                  1.3999         0.602532   
      6. B(C   8,C   6)                  1.3920         0.620147   
      7. B(C   8,O   0)                  1.3652         0.612916   
      8. B(C   9,C   7)                  1.3992         0.604080   
      9. B(C  10,C   9)                  1.4128         0.574492   
     10. B(C  10,C   8)                  1.4379         0.524047   
     11. B(C  10,O   1)                  1.3159         0.734665   
     12. B(H  11,C   3)                  1.1052         0.340536   
     13. B(H  12,C   3)                  1.1056         0.339986   
     14. B(H  13,C   5)                  1.1045         0.341447   
     15. B(H  14,C   5)                  1.1024         0.344115   
     16. B(H  15,C   6)                  1.0946         0.354025   
     17. B(H  16,C   7)                  1.0950         0.353543   
     18. B(H  17,C   9)                  1.0926         0.356691   
     19. B(H  18,N   2)                  1.0270         0.406559   
     20. B(H  19,N   2)                  1.0255         0.408780   
     21. B(H  20,O   0)                  1.0016         0.446276   
     22. B(Cu 21,H  20)                  2.1244         0.081501   
     23. B(Cu 21,O   1)                  1.9198         0.808636   
     24. A(C   8,O   0,H  20)          106.8064         0.359854   
     25. A(C  10,O   1,Cu 21)          132.6037         0.522631   
     26. A(C   5,N   2,H  18)          107.1340         0.332362   
     27. A(C   5,N   2,H  19)          108.2753         0.332662   
     28. A(H  18,N   2,H  19)          104.1699         0.297553   
     29. A(C   4,C   3,H  11)          109.6139         0.325963   
     30. A(C   4,C   3,H  12)          110.5605         0.325876   
     31. A(C   5,C   3,H  12)          108.4099         0.318465   
     32. A(H  11,C   3,H  12)          106.7419         0.285727   
     33. A(C   5,C   3,H  11)          108.4026         0.318549   
     34. A(C   4,C   3,C   5)          112.9002         0.365396   
     35. A(C   3,C   4,C   6)          120.5790         0.398787   
     36. A(C   6,C   4,C   7)          117.5960         0.427483   
     37. A(C   3,C   4,C   7)          121.7309         0.400753   
     38. A(H  13,C   5,H  14)          106.8385         0.286385   
     39. A(C   3,C   5,H  14)          108.6008         0.319093   
     40. A(N   2,C   5,H  14)          107.5411         0.326111   
     41. A(C   3,C   5,H  13)          109.8954         0.318688   
     42. A(N   2,C   5,H  13)          108.1604         0.325694   
     43. A(N   2,C   5,C   3)          115.4514         0.364915   
     44. A(C   8,C   6,H  15)          117.6929         0.351909   
     45. A(C   4,C   6,H  15)          120.3725         0.348553   
     46. A(C   4,C   6,C   8)          121.9344         0.429698   
     47. A(C   9,C   7,H  16)          119.5240         0.350271   
     48. A(C   4,C   7,H  16)          119.3688         0.350119   
     49. A(C   4,C   7,C   9)          121.1011         0.429829   
     50. A(O   0,C   8,C   6)          118.6719         0.430356   
     51. A(C   6,C   8,C  10)          121.0679         0.421199   
     52. A(O   0,C   8,C  10)          120.2601         0.417592   
     53. A(C  10,C   9,H  17)          116.9524         0.347837   
     54. A(C   7,C   9,H  17)          120.6750         0.350796   
     55. A(C   7,C   9,C  10)          122.3725         0.426172   
     56. A(C   8,C  10,C   9)          115.9258         0.415498   
     57. A(O   1,C  10,C   9)          121.5289         0.438543   
     58. A(O   1,C  10,C   8)          122.5316         0.431347   
     59. A(O   0,H  20,Cu 21)          158.3825         0.270202   
     60. A(O   1,Cu 21,H  20)           69.0859         0.367443   
     61. D(C   6,C   4,C   3,H  12)     41.6537         0.012297   
     62. D(C   6,C   4,C   3,H  11)    159.0585         0.012297   
     63. D(C   7,C   4,C   3,C   5)     96.4007         0.012297   
     64. D(C   7,C   4,C   3,H  12)   -141.9578         0.012297   
     65. D(C   7,C   4,C   3,H  11)    -24.5530         0.012297   
     66. D(C   6,C   4,C   3,C   5)    -79.9878         0.012297   
     67. D(N   2,C   5,C   3,H  11)     62.8442         0.010079   
     68. D(C   3,C   5,N   2,H  18)     53.9376         0.014991   
     69. D(H  14,C   5,C   3,H  12)    -60.8228         0.010079   
     70. D(H  14,C   5,N   2,H  18)    -67.4563         0.014991   
     71. D(H  14,C   5,C   3,H  11)   -176.3348         0.010079   
     72. D(N   2,C   5,C   3,C   4)    -58.7959         0.010079   
     73. D(H  13,C   5,C   3,H  12)     55.7183         0.010079   
     74. D(N   2,C   5,C   3,H  12)    178.3563         0.010079   
     75. D(H  13,C   5,C   3,H  11)    -59.7937         0.010079   
     76. D(C   3,C   5,N   2,H  19)    -57.8756         0.014991   
     77. D(H  13,C   5,N   2,H  18)    177.4936         0.014991   
     78. D(H  14,C   5,C   3,C   4)     62.0250         0.010079   
     79. D(H  13,C   5,N   2,H  19)     65.6803         0.014991   
     80. D(H  14,C   5,N   2,H  19)   -179.2696         0.014991   
     81. D(H  13,C   5,C   3,C   4)    178.5662         0.010079   
     82. D(H  15,C   6,C   4,C   7)    179.8451         0.023610   
     83. D(H  15,C   6,C   4,C   3)     -3.6207         0.023610   
     84. D(C   8,C   6,C   4,C   7)     -0.0311         0.023610   
     85. D(C   8,C   6,C   4,C   3)    176.5031         0.023610   
     86. D(H  16,C   7,C   4,C   6)   -179.2174         0.025039   
     87. D(H  16,C   7,C   4,C   3)      4.2908         0.025039   
     88. D(C   9,C   7,C   4,C   6)     -0.1172         0.025039   
     89. D(C   9,C   7,C   4,C   3)   -176.6089         0.025039   
     90. D(C  10,C   8,O   0,H  20)      3.5347         0.027517   
     91. D(C   6,C   8,O   0,H  20)   -176.5808         0.027517   
     92. D(C  10,C   8,C   6,H  15)    179.9914         0.026613   
     93. D(C  10,C   8,C   6,C   4)     -0.1292         0.026613   
     94. D(O   0,C   8,C   6,H  15)      0.1079         0.026613   
     95. D(O   0,C   8,C   6,C   4)    179.9873         0.026613   
     96. D(H  17,C   9,C   7,H  16)     -0.3687         0.025175   
     97. D(H  17,C   9,C   7,C   4)   -179.4676         0.025175   
     98. D(C  10,C   9,C   7,H  16)    179.5382         0.025175   
     99. D(C  10,C   9,C   7,C   4)      0.4394         0.025175   
    100. D(C   8,C  10,C   9,H  17)    179.3394         0.022655   
    101. D(C   8,C  10,C   9,C   7)     -0.5709         0.022655   
    102. D(O   1,C  10,C   9,C   7)    178.1137         0.022655   
    103. D(C   9,C  10,C   8,C   6)      0.4158         0.018735   
    104. D(C   9,C  10,C   8,O   0)   -179.7024         0.018735   
    105. D(O   1,C  10,C   8,C   6)   -178.2542         0.018735   
    106. D(O   1,C  10,C   9,H  17)     -1.9761         0.022655   
    107. D(O   1,C  10,C   8,O   0)      1.6275         0.018735   
    108. D(C   9,C  10,O   1,Cu 21)    152.6345         0.040812   
    109. D(C   8,C  10,O   1,Cu 21)    -28.7687         0.040812   
    110. D(Cu 21,H  20,O   0,C   8)     31.7193         0.206015   
    111. D(O   1,Cu 21,H  20,O   0)    -45.0019         0.001621   
    112. D(H  20,Cu 21,O   1,C  10)     29.6302         0.003680   
    -----------------------------------------------------------------

Number of atoms                         .... 22
Number of degrees of freedom            .... 112

         *************************************************************
         *                GEOMETRY OPTIMIZATION CYCLE   1            *
         *************************************************************
---------------------------------
CARTESIAN COORDINATES (ANGSTROEM)
---------------------------------
  O      2.327424   -1.922969   -0.145107
  O      3.272575    0.690758   -0.701601
  N     -3.034240    0.417375   -1.294636
  C     -2.098049   -0.158852    1.004030
  C     -0.661181    0.077394    0.618152
  C     -2.985225   -0.556309   -0.196341
  C      0.218565   -1.005971    0.435469
  C     -0.170856    1.362188    0.356348
  C      1.531472   -0.824655    0.009844
  C      1.147335    1.559916   -0.069065
  C      2.047384    0.488812   -0.266020
  H     -2.515802    0.758062    1.458159
  H     -2.168969   -0.953953    1.769039
  H     -4.018935   -0.741987    0.145481
  H     -2.610536   -1.506439   -0.611139
  H     -0.116527   -2.029842    0.629425
  H     -0.826556    2.227096    0.501339
  H      1.525376    2.566485   -0.263112
  H     -2.064281    0.610291   -1.571450
  H     -3.370153    1.310148   -0.918155
  H      3.236976   -1.588156   -0.397709
  Cu     4.911156   -0.282333   -0.469780

----------------------------
CARTESIAN COORDINATES (A.U.)
----------------------------
  NO LB      ZA    FRAG     MASS         X           Y           Z
   0 O     8.0000    0    15.999    4.398193   -3.633885   -0.274212
   1 O     8.0000    0    15.999    6.184270    1.305344   -1.325834
   2 N     7.0000    0    14.007   -5.733883    0.788724   -2.446508
   3 C     6.0000    0    12.011   -3.964739   -0.300186    1.897343
   4 C     6.0000    0    12.011   -1.249452    0.146254    1.168139
   5 C     6.0000    0    12.011   -5.641259   -1.051272   -0.371030
   6 C     6.0000    0    12.011    0.413029   -1.901010    0.822917
   7 C     6.0000    0    12.011   -0.322872    2.574163    0.673400
   8 C     6.0000    0    12.011    2.894063   -1.558372    0.018603
   9 C     6.0000    0    12.011    2.168149    2.947813   -0.130514
  10 C     6.0000    0    12.011    3.868995    0.923720   -0.502706
  11 H     1.0000    0     1.008   -4.754177    1.432529    2.755520
  12 H     1.0000    0     1.008   -4.098758   -1.802709    3.343000
  13 H     1.0000    0     1.008   -7.594687   -1.402152    0.274919
  14 H     1.0000    0     1.008   -4.933198   -2.846757   -1.154886
  15 H     1.0000    0     1.008   -0.220205   -3.835845    1.189441
  16 H     1.0000    0     1.008   -1.561965    4.208601    0.947393
  17 H     1.0000    0     1.008    2.882543    4.849954   -0.497209
  18 H     1.0000    0     1.008   -3.900927    1.153284   -2.969610
  19 H     1.0000    0     1.008   -6.368666    2.475821   -1.735061
  20 H     1.0000    0     1.008    6.116998   -3.001180   -0.751562
  21 Cu   29.0000    0    63.550    9.280740   -0.533532   -0.887756

--------------------------------
INTERNAL COORDINATES (ANGSTROEM)
--------------------------------
 O      0   0   0     0.000000000000     0.00000000     0.00000000
 O      1   0   0     2.834531336311     0.00000000     0.00000000
 N      1   2   0     5.962052555461    84.26361415     0.00000000
 C      3   1   2     2.548010967979    53.62039266   255.25790253
 C      4   3   1     1.506420783323    94.81287679    29.67271813
 C      3   1   2     1.468576362405    64.24857779   218.26516602
 C      5   4   3     1.407482631041   120.57903858   253.47943689
 C      5   4   3     1.399877091657   121.73089326    69.86793064
 C      1   2   3     1.365225931523    58.32240568   334.73079977
 C      8   5   4     1.399178537839   121.10114512   183.39105021
 C      2   1   3     1.315905075216    58.87188740    26.09440680
 H      4   3   1     1.105205965891    92.53273558   139.60579157
 H      4   3   1     1.105646303529   139.75272019   259.50955190
 H      6   3   1     1.104478889921   108.16037241   185.80909654
 H      6   3   1     1.102359786661   107.54110479   300.85918079
 H      7   5   4     1.094631249408   120.37254466   356.37928151
 H      8   5   4     1.095002249827   119.36876916     4.29083199
 H     10   8   5     1.092589256958   120.67498011   180.53240973
 H      3   1   2     1.026967884737    43.64189100    26.71332633
 H      3   1   2     1.025485127085   124.43936036   313.50797007
 H      1   2   3     1.001595470178    48.65790940   160.19524561
 Cu     2   1   3     1.919790719654    78.08285644   185.42891570

---------------------------
INTERNAL COORDINATES (A.U.)
---------------------------
 O      0   0   0     0.000000000000     0.00000000     0.00000000
 O      1   0   0     5.356487943646     0.00000000     0.00000000
 N      1   2   0    11.266646525867    84.26361415     0.00000000
 C      3   1   2     4.815042915708    53.62039266   255.25790253
 C      4   3   1     2.846722722927    94.81287679    29.67271813
 C      3   1   2     2.775207131696    64.24857779   218.26516602
 C      5   4   3     2.659756710919   120.57903858   253.47943689
 C      5   4   3     2.645384324382   121.73089326    69.86793064
 C      1   2   3     2.579903121506    58.32240568   334.73079977
 C      8   5   4     2.644064248975   121.10114512   183.39105021
 C      2   1   3     2.486700210394    58.87188740    26.09440680
 H      4   3   1     2.088536597111    92.53273558   139.60579157
 H      4   3   1     2.089368714651   139.75272019   259.50955190
 H      6   3   1     2.087162622648   108.16037241   185.80909654
 H      6   3   1     2.083158097838   107.54110479   300.85918079
 H      7   5   4     2.068553279013   120.37254466   356.37928151
 H      8   5   4     2.069254368200   119.36876916     4.29083199
 H     10   8   5     2.064694472516   120.67498011   180.53240973
 H      3   1   2     1.940688050486    43.64189100    26.71332633
 H      3   1   2     1.937886044599   124.43936036   313.50797007
 H      1   2   3     1.892741135612    48.65790940   160.19524561
 Cu     2   1   3     3.627878694590    78.08285644   185.42891570

---------------------
BASIS SET INFORMATION
---------------------
There are 5 groups of distinct atoms

 Group   1 Type O   : 11s6p2d1f contracted to 5s3p2d1f pattern {62111/411/11/1}
 Group   2 Type N   : 11s6p2d1f contracted to 5s3p2d1f pattern {62111/411/11/1}
 Group   3 Type C   : 11s6p2d1f contracted to 5s3p2d1f pattern {62111/411/11/1}
 Group   4 Type H   : 5s1p contracted to 3s1p pattern {311/1}
 Group   5 Type Cu  : 17s11p7d1f contracted to 6s4p4d1f pattern {842111/6311/4111/1}

Atom   0O    basis set group =>   1
Atom   1O    basis set group =>   1
Atom   2N    basis set group =>   2
Atom   3C    basis set group =>   3
Atom   4C    basis set group =>   3
Atom   5C    basis set group =>   3
Atom   6C    basis set group =>   3
Atom   7C    basis set group =>   3
Atom   8C    basis set group =>   3
Atom   9C    basis set group =>   3
Atom  10C    basis set group =>   3
Atom  11H    basis set group =>   4
Atom  12H    basis set group =>   4
Atom  13H    basis set group =>   4
Atom  14H    basis set group =>   4
Atom  15H    basis set group =>   4
Atom  16H    basis set group =>   4
Atom  17H    basis set group =>   4
Atom  18H    basis set group =>   4
Atom  19H    basis set group =>   4
Atom  20H    basis set group =>   4
Atom  21Cu   basis set group =>   5
---------------------------------
AUXILIARY/J BASIS SET INFORMATION
---------------------------------
There are 5 groups of distinct atoms

 Group   1 Type O   : 12s5p4d2f1g contracted to 6s4p3d1f1g pattern {711111/2111/211/2/1}
 Group   2 Type N   : 12s5p4d2f1g contracted to 6s4p3d1f1g pattern {711111/2111/211/2/1}
 Group   3 Type C   : 12s5p4d2f1g contracted to 6s4p3d1f1g pattern {711111/2111/211/2/1}
 Group   4 Type H   : 5s2p1d contracted to 3s1p1d pattern {311/2/1}
 Group   5 Type Cu  : 19s5p5d3f3g contracted to 8s5p4d3f3g pattern {121111111/11111/2111/111/111}

Atom   0O    basis set group =>   1
Atom   1O    basis set group =>   1
Atom   2N    basis set group =>   2
Atom   3C    basis set group =>   3
Atom   4C    basis set group =>   3
Atom   5C    basis set group =>   3
Atom   6C    basis set group =>   3
Atom   7C    basis set group =>   3
Atom   8C    basis set group =>   3
Atom   9C    basis set group =>   3
Atom  10C    basis set group =>   3
Atom  11H    basis set group =>   4
Atom  12H    basis set group =>   4
Atom  13H    basis set group =>   4
Atom  14H    basis set group =>   4
Atom  15H    basis set group =>   4
Atom  16H    basis set group =>   4
Atom  17H    basis set group =>   4
Atom  18H    basis set group =>   4
Atom  19H    basis set group =>   4
Atom  20H    basis set group =>   4
Atom  21Cu   basis set group =>   5


           ************************************************************
           *        Program running with 3 parallel MPI-processes     *
           *              working on a common directory               *
           ************************************************************
------------------------------------------------------------------------------
                           ORCA GTO INTEGRAL CALCULATION
                           -- RI-GTO INTEGRALS CHOSEN --
------------------------------------------------------------------------------
------------------------------------------------------------------------------
                   ___                                                        
                  /   \      - P O W E R E D   B Y -                         
                 /     \                                                     
                 |  |  |   _    _      __       _____    __    __             
                 |  |  |  | |  | |    /  \     |  _  \  |  |  /  |          
                  \  \/   | |  | |   /    \    | | | |  |  | /  /          
                 / \  \   | |__| |  /  /\  \   | |_| |  |  |/  /          
                |  |  |   |  __  | /  /__\  \  |    /   |      \           
                |  |  |   | |  | | |   __   |  |    \   |  |\   \          
                \     /   | |  | | |  |  |  |  | |\  \  |  | \   \       
                 \___/    |_|  |_| |__|  |__|  |_| \__\ |__|  \__/        
                                                                              
                      - O R C A' S   B I G   F R I E N D -                    
                                      &                                       
                       - I N T E G R A L  F E E D E R -                       
                                                                              
 v1 FN, 2020, v2 2021                                                         
------------------------------------------------------------------------------


Reading SHARK input file 3_deprotonated.SHARKINP.tmp ... ok
----------------------
SHARK INTEGRAL PACKAGE
----------------------

Number of atoms                             ...     22
Number of basis functions                   ...    446
Number of shells                            ...    176
Maximum angular momentum                    ...      3
Integral batch strategy                     ... SHARK/LIBINT Hybrid
RI-J (if used) integral strategy            ... SPLIT-RIJ (Revised 2003 algorithm where possible)
Printlevel                                  ...      1
Contraction scheme used                     ... SEGMENTED contraction
Coulomb Range Separation                    ... NOT USED
Exchange Range Separation                   ... NOT USED
Finite Nucleus Model                        ... NOT USED
Auxiliary Coulomb fitting basis             ... AVAILABLE
   # of basis functions in Aux-J            ...    740
   # of shells in Aux-J                     ...    238
   Maximum angular momentum in Aux-J        ...      4
Auxiliary J/K fitting basis                 ... NOT available
Auxiliary Correlation fitting basis         ... NOT available
Auxiliary 'external' fitting basis          ... NOT available
Integral threshold                          ...     2.500000e-11
Primitive cut-off                           ...     2.500000e-12
Primitive pair pre-selection threshold      ...     2.500000e-12

Calculating pre-screening integrals         ... done (  0.3 sec) Dimension = 176
Organizing shell pair data                  ... done (  0.3 sec)
Shell pair information
Total number of shell pairs                 ...     15576
Shell pairs after pre-screening             ...     12745
Total number of primitive shell pairs       ...     50417
Primitive shell pairs kept                  ...     28546
          la=0 lb=0:   3338 shell pairs
          la=1 lb=0:   3562 shell pairs
          la=1 lb=1:    982 shell pairs
          la=2 lb=0:   1909 shell pairs
          la=2 lb=1:   1036 shell pairs
          la=2 lb=2:    292 shell pairs
          la=3 lb=0:    847 shell pairs
          la=3 lb=1:    464 shell pairs
          la=3 lb=2:    253 shell pairs
          la=3 lb=3:     62 shell pairs

Calculating one electron integrals          ... done (  0.1 sec)
Calculating RI/J V-Matrix + Cholesky decomp.... done (  0.1 sec)
Calculating Nuclear repulsion               ... done (  0.0 sec) ENN=    887.953990009087 Eh

SHARK setup successfully completed in   0.9 seconds

Maximum memory used throughout the entire GTOINT-calculation: 22.6 MB


           ************************************************************
           *        Program running with 3 parallel MPI-processes     *
           *              working on a common directory               *
           ************************************************************
-------------------------------------------------------------------------------
                                 ORCA SCF
-------------------------------------------------------------------------------

------------
SCF SETTINGS
------------
Hamiltonian:
 Density Functional     Method          .... DFT(GTOs)
 Exchange Functional    Exchange        .... PBE
   PBE kappa parameter   XKappa         ....  0.804000
   PBE mue parameter    XMuePBE         ....  0.219520
 Correlation Functional Correlation     .... PBE
   PBE beta parameter  CBetaPBE         ....  0.066725
 LDA part of GGA corr.  LDAOpt          .... PW91-LDA
 Gradients option       PostSCFGGA      .... off
   Density functional embedding theory  .... OFF
   NL short-range parameter             ....  6.400000
 RI-approximation to the Coulomb term is turned on
   Number of AuxJ basis functions       .... 740


General Settings:
 Integral files         IntName         .... 3_deprotonated
 Hartree-Fock type      HFTyp           .... UHF
 Total Charge           Charge          ....   -1
 Multiplicity           Mult            ....    2
 Number of Electrons    NEL             ....  111
 Basis Dimension        Dim             ....  446
 Nuclear Repulsion      ENuc            ....    887.9539900091 Eh

Convergence Acceleration:
 DIIS                   CNVDIIS         .... on
   Start iteration      DIISMaxIt       ....    12
   Startup error        DIISStart       ....  0.200000
   # of expansion vecs  DIISMaxEq       ....     5
   Bias factor          DIISBfac        ....   1.050
   Max. coefficient     DIISMaxC        ....  10.000
 Trust-Rad. Augm. Hess. CNVTRAH         .... auto
   Auto Start mean grad. ratio tolernc. ....  1.125000
   Auto Start start iteration           ....    20
   Auto Start num. interpolation iter.  ....    10
   Max. Number of Micro iterations      ....    16
   Max. Number of Macro iterations      .... Maxiter - #DIIS iter
   Number of Davidson start vectors     ....     2
   Converg. threshold I  (grad. norm)   ....   1.000e-05
   Converg. threshold II (energy diff.) ....   1.000e-08
   Grad. Scal. Fac. for Micro threshold ....   0.100
   Minimum threshold for Micro iter.    ....   0.010
   NR start threshold (gradient norm)   ....   0.001
   Initial trust radius                 ....   0.400
   Minimum AH scaling param. (alpha)    ....   1.000
   Maximum AH scaling param. (alpha)    .... 1000.000
   Orbital update algorithm             .... Taylor
   White noise on init. David. guess    .... on
   Maximum white noise                  ....   0.010
   Quad. conv. algorithm                .... NR
 SOSCF                  CNVSOSCF        .... off
 Level Shifting         CNVShift        .... on
   Level shift para.    LevelShift      ....    0.2500
   Turn off err/grad.   ShiftErr        ....    0.0010
 Zerner damping         CNVZerner       .... off
 Static damping         CNVDamp         .... on
   Fraction old density DampFac         ....    0.7000
   Max. Damping (<1)    DampMax         ....    0.9800
   Min. Damping (>=0)   DampMin         ....    0.0000
   Turn off err/grad.   DampErr         ....    0.1000
 Fernandez-Rico         CNVRico         .... off

SCF Procedure:
 Maximum # iterations   MaxIter         ....   125
 SCF integral mode      SCFMode         .... Direct
   Integral package                     .... SHARK and LIBINT hybrid scheme
 Reset frequency        DirectResetFreq ....    20
 Integral Threshold     Thresh          ....  2.500e-11 Eh
 Primitive CutOff       TCut            ....  2.500e-12 Eh

Convergence Tolerance:
 Convergence Check Mode ConvCheckMode   .... Total+1el-Energy
 Convergence forced     ConvForced      .... 0
 Energy Change          TolE            ....  1.000e-08 Eh
 1-El. energy change                    ....  1.000e-05 Eh
 DIIS Error             TolErr          ....  5.000e-07


Diagonalization of the overlap matrix:
Smallest eigenvalue                        ... 9.611e-06
Time for diagonalization                   ...    0.038 sec
Threshold for overlap eigenvalues          ... 1.000e-08
Number of eigenvalues below threshold      ... 0
Time for construction of square roots      ...    0.013 sec
Total time needed                          ...    0.054 sec

Time for model grid setup =    0.186 sec

------------------------------
INITIAL GUESS: MODEL POTENTIAL
------------------------------
Loading Hartree-Fock densities                     ... done
Calculating cut-offs                               ... done
Initializing the effective Hamiltonian             ... done
Setting up the integral package (SHARK)            ... done
Starting the Coulomb interaction                   ... done (   0.3 sec)
Reading the grid                                   ... done
Mapping shells                                     ... done
Starting the XC term evaluation                    ... done (   0.3 sec)
  promolecular density results
     # of electrons  =    109.992870203
     EX              =   -132.166016460
     EC              =     -4.057756427
     EX+EC           =   -136.223772887
Transforming the Hamiltonian                       ... done (   0.0 sec)
Diagonalizing the Hamiltonian                      ... done (   0.0 sec)
Back transforming the eigenvectors                 ... done (   0.0 sec)
Now organizing SCF variables                       ... done
                      ------------------
                      INITIAL GUESS DONE (   0.8 sec)
                      ------------------
-------------------
DFT GRID GENERATION
-------------------

General Integration Accuracy     IntAcc      ... 4.388
Radial Grid Type                 RadialGrid  ... OptM3 with GC (2021)
Angular Grid (max. ang.)         AngularGrid ... 4 (Lebedev-302)
Angular grid pruning method      GridPruning ... 4 (adaptive)
Weight generation scheme         WeightScheme... Becke
Basis function cutoff            BFCut       ... 1.0000e-11
Integration weight cutoff        WCut        ... 1.0000e-14
Angular grids for H and He will be reduced by one unit
Partially contracted basis set               ... off
Rotationally invariant grid construction     ... off

Total number of grid points                  ...   109226
Total number of batches                      ...     1719
Average number of points per batch           ...       63
Average number of grid points per atom       ...     4965
Time for grid setup =    0.936 sec

--------------
SCF ITERATIONS
--------------
ITER       Energy         Delta-E        Max-DP      RMS-DP      [F,P]     Damp
               ***  Starting incremental Fock matrix formation  ***
  0  -2155.5332115183   0.000000000000 0.51413773  0.00367578  0.3000782 0.7000
  1  -2155.7542896465  -0.221078128229 0.33650353  0.00278599  0.0963221 0.7000
                               ***Turning on DIIS***
  2  -2155.8257890438  -0.071499397295 0.43845561  0.00322030  0.0565961 0.0000
  3  -2155.9466044469  -0.120815403069 0.07455348  0.00062218  0.1253331 0.7000
  4  -2155.9630539398  -0.016449492888 0.25690780  0.00217067  0.0905954 0.0000
  5  -2155.9884460280  -0.025392088255 0.01353163  0.00016104  0.0289815 0.0000
  6  -2155.9898241688  -0.001378140794 0.00764742  0.00008129  0.0038609 0.0000
  7  -2155.9899110161  -0.000086847306 0.00341029  0.00004110  0.0032806 0.0000
  8  -2155.9899322874  -0.000021271295 0.00494943  0.00003386  0.0028534 0.0000
  9  -2155.9899462112  -0.000013923790 0.00691331  0.00005365  0.0006486 0.0000
 10  -2155.9899507675  -0.000004556258 0.00062155  0.00000414  0.0010520 0.0000
 11  -2155.9899521162  -0.000001348689 0.00162872  0.00001174  0.0007284 0.0000
 12  -2155.9899527955  -0.000000679304 0.00075045  0.00000552  0.0002679 0.0000
 13  -2155.9899527995  -0.000000004014 0.00062147  0.00000451  0.0002829 0.0000
 14  -2155.9899529341  -0.000000134592 0.00015033  0.00000108  0.0000800 0.0000
 15  -2155.9899529434  -0.000000009336 0.00010216  0.00000078  0.0000328 0.0000
 16  -2155.9899529469  -0.000000003474 0.00009787  0.00000075  0.0000086 0.0000
 17  -2155.9899529533  -0.000000006380 0.00012975  0.00000102  0.0000092 0.0000
 18  -2155.9899529463   0.000000007003 0.00028015  0.00000184  0.0000036 0.0000
 19  -2155.9899529487  -0.000000002412 0.00074899  0.00000554  0.0000040 0.0000
               *** Restarting incremental Fock matrix formation ***
                                   *** Resetting DIIS ***
 20  -2155.9899529574  -0.000000008748 0.00164207  0.00001217  0.0000033 0.0000
 21  -2155.9899529612  -0.000000003778 0.00002276  0.00000020  0.0000171 0.0000
 22  -2155.9899529672  -0.000000005976 0.00009944  0.00000068  0.0000026 0.0000
 23  -2155.9899529710  -0.000000003783 0.00024032  0.00000157  0.0000015 0.0000
                            ***DIIS convergence achieved***

               *****************************************************
               *                     SUCCESS                       *
               *           SCF CONVERGED AFTER  24 CYCLES          *
               *****************************************************


----------------
TOTAL SCF ENERGY
----------------

Total Energy       :        -2155.98995297 Eh          -58667.46922 eV

Components:
Nuclear Repulsion  :          887.95399001 Eh           24162.45646 eV
Electronic Energy  :        -3043.94394298 Eh          -82829.92568 eV
One Electron Energy:        -4769.81110860 Eh         -129793.15882 eV
Two Electron Energy:         1725.86716562 Eh           46963.23314 eV

Virial components:
Potential Energy   :        -4307.33362036 Eh         -117208.50658 eV
Kinetic Energy     :         2151.34366739 Eh           58541.03736 eV
Virial Ratio       :            2.00215971


DFT components:
N(Alpha)           :       55.999808335962 electrons
N(Beta)            :       55.000104444103 electrons
N(Total)           :      110.999912780065 electrons
E(X)               :     -133.678764391207 Eh       
E(C)               :       -4.093892365211 Eh       
E(XC)              :     -137.772656756418 Eh       
DFET-embed. en.    :        0.000000000000 Eh       

---------------
SCF CONVERGENCE
---------------

  Last Energy change         ...   -2.8799e-09  Tolerance :   1.0000e-08
  Last MAX-Density change    ...    5.6390e-05  Tolerance :   1.0000e-07
  Last RMS-Density change    ...    3.7462e-07  Tolerance :   5.0000e-09
  Last DIIS Error            ...    2.5737e-07  Tolerance :   5.0000e-07

             **** THE GBW FILE WAS UPDATED (3_deprotonated.gbw) ****
             **** DENSITY 3_deprotonated.scfp WAS UPDATED ****
             **** ENERGY FILE WAS UPDATED (3_deprotonated.en.tmp) ****
----------------------
UHF SPIN CONTAMINATION
----------------------

Warning: in a DFT calculation there is little theoretical justification to 
         calculate <S**2> as in Hartree-Fock theory. We will do it anyways
         but you should keep in mind that the values have only limited relevance

Expectation value of <S**2>     :     0.752601
Ideal value S*(S+1) for S=0.5   :     0.750000
Deviation                       :     0.002601

             **** THE GBW FILE WAS UPDATED (3_deprotonated.gbw) ****
             **** DENSITY 3_deprotonated.scfp WAS UPDATED ****
----------------
ORBITAL ENERGIES
----------------
                 SPIN UP ORBITALS
  NO   OCC          E(Eh)            E(eV) 
   0   1.0000    -321.336322     -8744.0059 
   1   1.0000     -38.106680     -1036.9355 
   2   1.0000     -33.398485      -908.8190 
   3   1.0000     -33.396804      -908.7732 
   4   1.0000     -33.396469      -908.7641 
   5   1.0000     -18.632298      -507.0106 
   6   1.0000     -18.582791      -505.6634 
   7   1.0000     -13.862846      -377.2272 
   8   1.0000      -9.802434      -266.7378 
   9   1.0000      -9.794281      -266.5159 
  10   1.0000      -9.789704      -266.3914 
  11   1.0000      -9.774959      -265.9902 
  12   1.0000      -9.753853      -265.4158 
  13   1.0000      -9.747666      -265.2475 
  14   1.0000      -9.745208      -265.1806 
  15   1.0000      -9.738020      -264.9850 
  16   1.0000      -3.938313      -107.1669 
  17   1.0000      -2.476336       -67.3845 
  18   1.0000      -2.473736       -67.3138 
  19   1.0000      -2.469629       -67.2020 
  20   1.0000      -0.823245       -22.4016 
  21   1.0000      -0.760467       -20.6934 
  22   1.0000      -0.703041       -19.1307 
  23   1.0000      -0.631764       -17.1912 
  24   1.0000      -0.567586       -15.4448 
  25   1.0000      -0.529340       -14.4041 
  26   1.0000      -0.500988       -13.6326 
  27   1.0000      -0.440536       -11.9876 
  28   1.0000      -0.406934       -11.0732 
  29   1.0000      -0.399277       -10.8649 
  30   1.0000      -0.347156        -9.4466 
  31   1.0000      -0.327428        -8.9098 
  32   1.0000      -0.302595        -8.2340 
  33   1.0000      -0.295844        -8.0503 
  34   1.0000      -0.281636        -7.6637 
  35   1.0000      -0.269376        -7.3301 
  36   1.0000      -0.249100        -6.7784 
  37   1.0000      -0.242692        -6.6040 
  38   1.0000      -0.231665        -6.3039 
  39   1.0000      -0.227647        -6.1946 
  40   1.0000      -0.206743        -5.6258 
  41   1.0000      -0.194846        -5.3020 
  42   1.0000      -0.183285        -4.9874 
  43   1.0000      -0.170458        -4.6384 
  44   1.0000      -0.162277        -4.4158 
  45   1.0000      -0.144676        -3.9368 
  46   1.0000      -0.104547        -2.8449 
  47   1.0000      -0.102735        -2.7956 
  48   1.0000      -0.071580        -1.9478 
  49   1.0000      -0.050725        -1.3803 
  50   1.0000      -0.047680        -1.2974 
  51   1.0000      -0.044817        -1.2195 
  52   1.0000      -0.042194        -1.1482 
  53   1.0000      -0.035983        -0.9791 
  54   1.0000      -0.019337        -0.5262 
  55   1.0000       0.012087         0.3289 
  56   0.0000       0.100135         2.7248 
  57   0.0000       0.106648         2.9020 
  58   0.0000       0.117769         3.2046 
  59   0.0000       0.127174         3.4606 
  60   0.0000       0.139380         3.7927 
  61   0.0000       0.153038         4.1644 
  62   0.0000       0.158583         4.3153 
  63   0.0000       0.174671         4.7530 
  64   0.0000       0.183707         4.9989 
  65   0.0000       0.191990         5.2243 
  66   0.0000       0.194377         5.2893 
  67   0.0000       0.204803         5.5730 
  68   0.0000       0.206605         5.6220 
  69   0.0000       0.214890         5.8475 
  70   0.0000       0.217767         5.9257 
  71   0.0000       0.236499         6.4355 
  72   0.0000       0.243301         6.6206 
  73   0.0000       0.254500         6.9253 
  74   0.0000       0.269735         7.3399 
  75   0.0000       0.276003         7.5104 
  76   0.0000       0.288122         7.8402 
  77   0.0000       0.290919         7.9163 
  78   0.0000       0.294686         8.0188 
  79   0.0000       0.303098         8.2477 
  80   0.0000       0.306347         8.3361 
  81   0.0000       0.318216         8.6591 
  82   0.0000       0.321815         8.7570 
  83   0.0000       0.322836         8.7848 
  84   0.0000       0.338392         9.2081 
  85   0.0000       0.345236         9.3944 
  86   0.0000       0.358110         9.7447 
  87   0.0000       0.365801         9.9540 
  88   0.0000       0.369163        10.0454 
  89   0.0000       0.372919        10.1476 
  90   0.0000       0.381550        10.3825 
  91   0.0000       0.385351        10.4859 
  92   0.0000       0.405732        11.0405 
  93   0.0000       0.408024        11.1029 
  94   0.0000       0.415911        11.3175 
  95   0.0000       0.426962        11.6182 
  96   0.0000       0.430203        11.7064 
  97   0.0000       0.432946        11.7811 
  98   0.0000       0.443324        12.0635 
  99   0.0000       0.450158        12.2494 
 100   0.0000       0.456963        12.4346 
 101   0.0000       0.464219        12.6320 
 102   0.0000       0.469825        12.7846 
 103   0.0000       0.483481        13.1562 
 104   0.0000       0.495482        13.4827 
 105   0.0000       0.498850        13.5744 
 106   0.0000       0.505305        13.7501 
 107   0.0000       0.510312        13.8863 
 108   0.0000       0.515040        14.0150 
 109   0.0000       0.523389        14.2421 
 110   0.0000       0.531609        14.4658 
 111   0.0000       0.538789        14.6612 
 112   0.0000       0.547855        14.9079 
 113   0.0000       0.553455        15.0603 
 114   0.0000       0.555019        15.1028 
 115   0.0000       0.563830        15.3426 
 116   0.0000       0.578360        15.7380 
 117   0.0000       0.579574        15.7710 
 118   0.0000       0.588333        16.0094 
 119   0.0000       0.599784        16.3210 
 120   0.0000       0.617631        16.8066 
 121   0.0000       0.633184        17.2298 
 122   0.0000       0.638281        17.3685 
 123   0.0000       0.643993        17.5240 
 124   0.0000       0.660077        17.9616 
 125   0.0000       0.676372        18.4050 
 126   0.0000       0.684498        18.6261 
 127   0.0000       0.694912        18.9095 
 128   0.0000       0.710490        19.3334 
 129   0.0000       0.722572        19.6622 
 130   0.0000       0.732297        19.9268 
 131   0.0000       0.739267        20.1165 
 132   0.0000       0.747563        20.3422 
 133   0.0000       0.759657        20.6713 
 134   0.0000       0.777847        21.1663 
 135   0.0000       0.785597        21.3772 
 136   0.0000       0.805159        21.9095 
 137   0.0000       0.810079        22.0434 
 138   0.0000       0.825150        22.4535 
 139   0.0000       0.855087        23.2681 
 140   0.0000       0.860632        23.4190 
 141   0.0000       0.870603        23.6903 
 142   0.0000       0.879064        23.9206 
 143   0.0000       0.892806        24.2945 
 144   0.0000       0.900115        24.4934 
 145   0.0000       0.919415        25.0186 
 146   0.0000       0.926240        25.2043 
 147   0.0000       0.936282        25.4775 
 148   0.0000       0.940488        25.5920 
 149   0.0000       0.956240        26.0206 
 150   0.0000       0.963993        26.2316 
 151   0.0000       0.984348        26.7855 
 152   0.0000       0.991928        26.9917 
 153   0.0000       1.011352        27.5203 
 154   0.0000       1.027167        27.9506 
 155   0.0000       1.029092        28.0030 
 156   0.0000       1.034687        28.1553 
 157   0.0000       1.051037        28.6002 
 158   0.0000       1.062196        28.9038 
 159   0.0000       1.079909        29.3858 
 160   0.0000       1.086340        29.5608 
 161   0.0000       1.111700        30.2509 
 162   0.0000       1.118881        30.4463 
 163   0.0000       1.148094        31.2412 
 164   0.0000       1.160259        31.5723 
 165   0.0000       1.164680        31.6925 
 166   0.0000       1.170030        31.8381 
 167   0.0000       1.196288        32.5527 
 168   0.0000       1.205702        32.8088 
 169   0.0000       1.215145        33.0658 
 170   0.0000       1.235797        33.6278 
 171   0.0000       1.241870        33.7930 
 172   0.0000       1.280803        34.8524 
 173   0.0000       1.285357        34.9763 
 174   0.0000       1.313917        35.7535 
 175   0.0000       1.316887        35.8343 
 176   0.0000       1.328860        36.1601 
 177   0.0000       1.342563        36.5330 
 178   0.0000       1.345350        36.6088 
 179   0.0000       1.362326        37.0708 
 180   0.0000       1.386917        37.7399 
 181   0.0000       1.402280        38.1580 
 182   0.0000       1.405260        38.2391 
 183   0.0000       1.425939        38.8018 
 184   0.0000       1.430619        38.9291 
 185   0.0000       1.456901        39.6443 
 186   0.0000       1.464149        39.8415 
 187   0.0000       1.480569        40.2883 
 188   0.0000       1.498020        40.7632 
 189   0.0000       1.535123        41.7728 
 190   0.0000       1.547228        42.1022 
 191   0.0000       1.569865        42.7182 
 192   0.0000       1.578815        42.9617 
 193   0.0000       1.592270        43.3279 
 194   0.0000       1.601085        43.5677 
 195   0.0000       1.615493        43.9598 
 196   0.0000       1.624436        44.2032 
 197   0.0000       1.638748        44.5926 
 198   0.0000       1.658644        45.1340 
 199   0.0000       1.677644        45.6510 
 200   0.0000       1.680039        45.7162 
 201   0.0000       1.721418        46.8422 
 202   0.0000       1.727631        47.0112 
 203   0.0000       1.736786        47.2603 
 204   0.0000       1.757786        47.8318 
 205   0.0000       1.763855        47.9969 
 206   0.0000       1.775814        48.3224 
 207   0.0000       1.794296        48.8253 
 208   0.0000       1.798814        48.9482 
 209   0.0000       1.819992        49.5245 
 210   0.0000       1.854248        50.4566 
 211   0.0000       1.858280        50.5664 
 212   0.0000       1.867938        50.8292 
 213   0.0000       1.886941        51.3463 
 214   0.0000       1.889592        51.4184 
 215   0.0000       1.917604        52.1807 
 216   0.0000       1.929342        52.5001 
 217   0.0000       1.942348        52.8540 
 218   0.0000       1.945097        52.9288 
 219   0.0000       1.980915        53.9034 
 220   0.0000       1.989955        54.1494 
 221   0.0000       2.000085        54.4251 
 222   0.0000       2.012424        54.7608 
 223   0.0000       2.024130        55.0794 
 224   0.0000       2.035244        55.3818 
 225   0.0000       2.057591        55.9899 
 226   0.0000       2.080635        56.6170 
 227   0.0000       2.084025        56.7092 
 228   0.0000       2.086150        56.7670 
 229   0.0000       2.100917        57.1689 
 230   0.0000       2.115803        57.5739 
 231   0.0000       2.132016        58.0151 
 232   0.0000       2.151516        58.5457 
 233   0.0000       2.170412        59.0599 
 234   0.0000       2.194692        59.7206 
 235   0.0000       2.218127        60.3583 
 236   0.0000       2.227290        60.6076 
 237   0.0000       2.241291        60.9886 
 238   0.0000       2.247150        61.1481 
 239   0.0000       2.260358        61.5075 
 240   0.0000       2.273065        61.8533 
 241   0.0000       2.294247        62.4296 
 242   0.0000       2.305201        62.7277 
 243   0.0000       2.315499        63.0079 
 244   0.0000       2.333647        63.5018 
 245   0.0000       2.354326        64.0645 
 246   0.0000       2.371520        64.5323 
 247   0.0000       2.404088        65.4186 
 248   0.0000       2.424973        65.9869 
 249   0.0000       2.440694        66.4147 
 250   0.0000       2.446989        66.5860 
 251   0.0000       2.470720        67.2317 
 252   0.0000       2.483066        67.5677 
 253   0.0000       2.496460        67.9321 
 254   0.0000       2.514151        68.4135 
 255   0.0000       2.530354        68.8544 
 256   0.0000       2.550717        69.4085 
 257   0.0000       2.557148        69.5835 
 258   0.0000       2.575739        70.0894 
 259   0.0000       2.593788        70.5806 
 260   0.0000       2.621404        71.3320 
 261   0.0000       2.625876        71.4537 
 262   0.0000       2.654652        72.2368 
 263   0.0000       2.663342        72.4732 
 264   0.0000       2.672750        72.7292 
 265   0.0000       2.680366        72.9365 
 266   0.0000       2.684159        73.0397 
 267   0.0000       2.701792        73.5195 
 268   0.0000       2.717415        73.9446 
 269   0.0000       2.731543        74.3291 
 270   0.0000       2.745848        74.7183 
 271   0.0000       2.760682        75.1220 
 272   0.0000       2.776531        75.5533 
 273   0.0000       2.798144        76.1414 
 274   0.0000       2.807811        76.4044 
 275   0.0000       2.836093        77.1740 
 276   0.0000       2.842423        77.3463 
 277   0.0000       2.847731        77.4907 
 278   0.0000       2.860877        77.8484 
 279   0.0000       2.868729        78.0621 
 280   0.0000       2.895752        78.7974 
 281   0.0000       2.904272        79.0293 
 282   0.0000       2.915862        79.3446 
 283   0.0000       2.935544        79.8802 
 284   0.0000       2.951630        80.3179 
 285   0.0000       2.958122        80.4946 
 286   0.0000       2.964289        80.6624 
 287   0.0000       2.994715        81.4903 
 288   0.0000       3.008862        81.8753 
 289   0.0000       3.018627        82.1410 
 290   0.0000       3.033470        82.5449 
 291   0.0000       3.055761        83.1515 
 292   0.0000       3.065592        83.4190 
 293   0.0000       3.077469        83.7422 
 294   0.0000       3.077870        83.7531 
 295   0.0000       3.116228        84.7969 
 296   0.0000       3.122804        84.9758 
 297   0.0000       3.133325        85.2621 
 298   0.0000       3.155793        85.8735 
 299   0.0000       3.168602        86.2220 
 300   0.0000       3.175256        86.4031 
 301   0.0000       3.192269        86.8661 
 302   0.0000       3.209065        87.3231 
 303   0.0000       3.216721        87.5314 
 304   0.0000       3.224733        87.7494 
 305   0.0000       3.244594        88.2899 
 306   0.0000       3.253437        88.5305 
 307   0.0000       3.265495        88.8586 
 308   0.0000       3.275782        89.1386 
 309   0.0000       3.291695        89.5716 
 310   0.0000       3.300791        89.8191 
 311   0.0000       3.328390        90.5701 
 312   0.0000       3.332371        90.6784 
 313   0.0000       3.335945        90.7757 
 314   0.0000       3.358332        91.3848 
 315   0.0000       3.367519        91.6348 
 316   0.0000       3.386215        92.1436 
 317   0.0000       3.402059        92.5747 
 318   0.0000       3.418690        93.0273 
 319   0.0000       3.427622        93.2703 
 320   0.0000       3.439419        93.5914 
 321   0.0000       3.444082        93.7182 
 322   0.0000       3.470606        94.4400 
 323   0.0000       3.482671        94.7683 
 324   0.0000       3.486151        94.8630 
 325   0.0000       3.501296        95.2751 
 326   0.0000       3.513395        95.6043 
 327   0.0000       3.549965        96.5995 
 328   0.0000       3.552933        96.6802 
 329   0.0000       3.562462        96.9395 
 330   0.0000       3.563871        96.9779 
 331   0.0000       3.566853        97.0590 
 332   0.0000       3.579967        97.4159 
 333   0.0000       3.621489        98.5457 
 334   0.0000       3.661277        99.6284 
 335   0.0000       3.698637       100.6450 
 336   0.0000       3.706659       100.8633 
 337   0.0000       3.716734       101.1375 
 338   0.0000       3.726702       101.4087 
 339   0.0000       3.732676       101.5713 
 340   0.0000       3.748067       101.9901 
 341   0.0000       3.768259       102.5395 
 342   0.0000       3.787861       103.0729 
 343   0.0000       3.797330       103.3306 
 344   0.0000       3.829104       104.1952 
 345   0.0000       3.851379       104.8013 
 346   0.0000       3.868249       105.2604 
 347   0.0000       3.880013       105.5805 
 348   0.0000       3.888830       105.8204 
 349   0.0000       3.907872       106.3386 
 350   0.0000       3.938661       107.1764 
 351   0.0000       3.949419       107.4692 
 352   0.0000       3.960353       107.7667 
 353   0.0000       3.982253       108.3626 
 354   0.0000       4.010562       109.1329 
 355   0.0000       4.028310       109.6159 
 356   0.0000       4.044036       110.0438 
 357   0.0000       4.080197       111.0278 
 358   0.0000       4.121635       112.1554 
 359   0.0000       4.126858       112.2975 
 360   0.0000       4.151496       112.9680 
 361   0.0000       4.174115       113.5835 
 362   0.0000       4.203062       114.3711 
 363   0.0000       4.222587       114.9024 
 364   0.0000       4.233271       115.1931 
 365   0.0000       4.247640       115.5842 
 366   0.0000       4.290457       116.7493 
 367   0.0000       4.303895       117.1149 
 368   0.0000       4.307892       117.2237 
 369   0.0000       4.339336       118.0793 
 370   0.0000       4.352912       118.4488 
 371   0.0000       4.377599       119.1205 
 372   0.0000       4.411074       120.0314 
 373   0.0000       4.447387       121.0196 
 374   0.0000       4.462263       121.4243 
 375   0.0000       4.501675       122.4968 
 376   0.0000       4.527328       123.1949 
 377   0.0000       4.578244       124.5803 
 378   0.0000       4.621954       125.7698 
 379   0.0000       4.642560       126.3305 
 380   0.0000       4.675541       127.2280 
 381   0.0000       4.710836       128.1884 
 382   0.0000       4.756459       129.4298 
 383   0.0000       4.805658       130.7686 
 384   0.0000       4.848311       131.9293 
 385   0.0000       4.874205       132.6339 
 386   0.0000       4.886860       132.9782 
 387   0.0000       4.901402       133.3739 
 388   0.0000       4.905951       133.4977 
 389   0.0000       4.941882       134.4754 
 390   0.0000       4.979185       135.4905 
 391   0.0000       5.027454       136.8040 
 392   0.0000       5.054977       137.5529 
 393   0.0000       5.076338       138.1342 
 394   0.0000       5.125895       139.4827 
 395   0.0000       5.136060       139.7593 
 396   0.0000       5.219105       142.0191 
 397   0.0000       5.225576       142.1952 
 398   0.0000       5.251420       142.8984 
 399   0.0000       5.288770       143.9148 
 400   0.0000       5.292559       144.0179 
 401   0.0000       5.319693       144.7562 
 402   0.0000       5.386198       146.5659 
 403   0.0000       5.436217       147.9270 
 404   0.0000       5.494828       149.5219 
 405   0.0000       5.525336       150.3520 
 406   0.0000       5.561889       151.3467 
 407   0.0000       5.571151       151.5987 
 408   0.0000       5.618817       152.8958 
 409   0.0000       5.736969       156.1109 
 410   0.0000       5.739965       156.1924 
 411   0.0000       5.756103       156.6315 
 412   0.0000       5.814113       158.2101 
 413   0.0000       5.815453       158.2465 
 414   0.0000       5.816318       158.2701 
 415   0.0000       5.817635       158.3059 
 416   0.0000       5.818693       158.3347 
 417   0.0000       5.822131       158.4282 
 418   0.0000       5.854762       159.3162 
 419   0.0000       5.965511       162.3298 
 420   0.0000       6.023782       163.9154 
 421   0.0000       6.073051       165.2561 
 422   0.0000       6.302224       171.4922 
 423   0.0000       6.365795       173.2221 
 424   0.0000       6.425668       174.8513 
 425   0.0000       6.504399       176.9937 
 426   0.0000       6.651930       181.0082 
 427   0.0000       6.673394       181.5923 
 428   0.0000       6.716309       182.7601 
 429   0.0000       6.822512       185.6500 
 430   0.0000       6.858560       186.6309 
 431   0.0000       7.017258       190.9493 
 432   0.0000       7.080362       192.6664 
 433   0.0000       7.128867       193.9863 
 434   0.0000       7.345658       199.8855 
 435   0.0000      22.070018       600.5557 
 436   0.0000      22.240371       605.1913 
 437   0.0000      22.372430       608.7848 
 438   0.0000      22.565766       614.0457 
 439   0.0000      22.608794       615.2166 
 440   0.0000      22.777583       619.8095 
 441   0.0000      22.819247       620.9433 
 442   0.0000      23.274570       633.3332 
 443   0.0000      31.726741       863.3285 
 444   0.0000      43.645720      1187.6604 
 445   0.0000      43.843941      1193.0543 

                 SPIN DOWN ORBITALS
  NO   OCC          E(Eh)            E(eV) 
   0   1.0000    -321.335771     -8743.9909 
   1   1.0000     -38.104324     -1036.8714 
   2   1.0000     -33.395758      -908.7448 
   3   1.0000     -33.395672      -908.7424 
   4   1.0000     -33.394615      -908.7137 
   5   1.0000     -18.632067      -507.0043 
   6   1.0000     -18.580336      -505.5967 
   7   1.0000     -13.862846      -377.2272 
   8   1.0000      -9.802431      -266.7377 
   9   1.0000      -9.794252      -266.5152 
  10   1.0000      -9.789614      -266.3889 
  11   1.0000      -9.774961      -265.9902 
  12   1.0000      -9.753826      -265.4151 
  13   1.0000      -9.747640      -265.2468 
  14   1.0000      -9.745207      -265.1806 
  15   1.0000      -9.737871      -264.9809 
  16   1.0000      -3.933407      -107.0334 
  17   1.0000      -2.469835       -67.2076 
  18   1.0000      -2.468804       -67.1796 
  19   1.0000      -2.465850       -67.0992 
  20   1.0000      -0.822671       -22.3860 
  21   1.0000      -0.756920       -20.5968 
  22   1.0000      -0.703038       -19.1306 
  23   1.0000      -0.631538       -17.1850 
  24   1.0000      -0.567344       -15.4382 
  25   1.0000      -0.529177       -14.3996 
  26   1.0000      -0.500566       -13.6211 
  27   1.0000      -0.440287       -11.9808 
  28   1.0000      -0.406626       -11.0649 
  29   1.0000      -0.398993       -10.8572 
  30   1.0000      -0.346953        -9.4411 
  31   1.0000      -0.326541        -8.8856 
  32   1.0000      -0.302180        -8.2227 
  33   1.0000      -0.295342        -8.0367 
  34   1.0000      -0.280387        -7.6297 
  35   1.0000      -0.269340        -7.3291 
  36   1.0000      -0.248341        -6.7577 
  37   1.0000      -0.242482        -6.5983 
  38   1.0000      -0.230857        -6.2819 
  39   1.0000      -0.227111        -6.1800 
  40   1.0000      -0.206476        -5.6185 
  41   1.0000      -0.194540        -5.2937 
  42   1.0000      -0.183109        -4.9826 
  43   1.0000      -0.169077        -4.6008 
  44   1.0000      -0.161680        -4.3995 
  45   1.0000      -0.143820        -3.9135 
  46   1.0000      -0.104008        -2.8302 
  47   1.0000      -0.098269        -2.6740 
  48   1.0000      -0.071087        -1.9344 
  49   1.0000      -0.046673        -1.2700 
  50   1.0000      -0.041169        -1.1203 
  51   1.0000      -0.039271        -1.0686 
  52   1.0000      -0.035547        -0.9673 
  53   1.0000      -0.026787        -0.7289 
  54   1.0000      -0.016035        -0.4363 
  55   0.0000       0.046295         1.2597 
  56   0.0000       0.100438         2.7331 
  57   0.0000       0.106795         2.9060 
  58   0.0000       0.118386         3.2215 
  59   0.0000       0.138936         3.7806 
  60   0.0000       0.143374         3.9014 
  61   0.0000       0.153336         4.1725 
  62   0.0000       0.158753         4.3199 
  63   0.0000       0.174955         4.7608 
  64   0.0000       0.185573         5.0497 
  65   0.0000       0.192754         5.2451 
  66   0.0000       0.210821         5.7367 
  67   0.0000       0.214882         5.8472 
  68   0.0000       0.217039         5.9059 
  69   0.0000       0.223032         6.0690 
  70   0.0000       0.233229         6.3465 
  71   0.0000       0.237083         6.4514 
  72   0.0000       0.243884         6.6364 
  73   0.0000       0.256821         6.9884 
  74   0.0000       0.276615         7.5271 
  75   0.0000       0.285879         7.7792 
  76   0.0000       0.293342         7.9822 
  77   0.0000       0.297034         8.0827 
  78   0.0000       0.302043         8.2190 
  79   0.0000       0.311342         8.4720 
  80   0.0000       0.315472         8.5844 
  81   0.0000       0.323334         8.7984 
  82   0.0000       0.327438         8.9100 
  83   0.0000       0.331380         9.0173 
  84   0.0000       0.342275         9.3138 
  85   0.0000       0.350360         9.5338 
  86   0.0000       0.358899         9.7661 
  87   0.0000       0.366657         9.9773 
  88   0.0000       0.372577        10.1383 
  89   0.0000       0.373676        10.1683 
  90   0.0000       0.382453        10.4071 
  91   0.0000       0.385535        10.4909 
  92   0.0000       0.407846        11.0981 
  93   0.0000       0.410319        11.1654 
  94   0.0000       0.417164        11.3516 
  95   0.0000       0.428174        11.6512 
  96   0.0000       0.431555        11.7432 
  97   0.0000       0.435436        11.8488 
  98   0.0000       0.444771        12.1028 
  99   0.0000       0.456813        12.4305 
 100   0.0000       0.460731        12.5371 
 101   0.0000       0.466619        12.6974 
 102   0.0000       0.475539        12.9401 
 103   0.0000       0.485534        13.2120 
 104   0.0000       0.496498        13.5104 
 105   0.0000       0.499894        13.6028 
 106   0.0000       0.506088        13.7714 
 107   0.0000       0.511330        13.9140 
 108   0.0000       0.516663        14.0591 
 109   0.0000       0.523883        14.2556 
 110   0.0000       0.533391        14.5143 
 111   0.0000       0.539919        14.6919 
 112   0.0000       0.548362        14.9217 
 113   0.0000       0.554893        15.0994 
 114   0.0000       0.556683        15.1481 
 115   0.0000       0.566393        15.4123 
 116   0.0000       0.578568        15.7436 
 117   0.0000       0.580315        15.7912 
 118   0.0000       0.590983        16.0815 
 119   0.0000       0.603098        16.4111 
 120   0.0000       0.618454        16.8290 
 121   0.0000       0.634635        17.2693 
 122   0.0000       0.640112        17.4183 
 123   0.0000       0.644671        17.5424 
 124   0.0000       0.661847        18.0098 
 125   0.0000       0.676967        18.4212 
 126   0.0000       0.684982        18.6393 
 127   0.0000       0.695994        18.9390 
 128   0.0000       0.711716        19.3668 
 129   0.0000       0.723231        19.6801 
 130   0.0000       0.733174        19.9507 
 131   0.0000       0.740136        20.1401 
 132   0.0000       0.748605        20.3706 
 133   0.0000       0.760601        20.6970 
 134   0.0000       0.778728        21.1903 
 135   0.0000       0.786229        21.3944 
 136   0.0000       0.807120        21.9629 
 137   0.0000       0.810941        22.0668 
 138   0.0000       0.826058        22.4782 
 139   0.0000       0.855542        23.2805 
 140   0.0000       0.862458        23.4687 
 141   0.0000       0.871946        23.7269 
 142   0.0000       0.881487        23.9865 
 143   0.0000       0.893368        24.3098 
 144   0.0000       0.902082        24.5469 
 145   0.0000       0.921318        25.0703 
 146   0.0000       0.927740        25.2451 
 147   0.0000       0.936980        25.4965 
 148   0.0000       0.941881        25.6299 
 149   0.0000       0.957594        26.0575 
 150   0.0000       0.965033        26.2599 
 151   0.0000       0.986797        26.8521 
 152   0.0000       0.996965        27.1288 
 153   0.0000       1.017727        27.6938 
 154   0.0000       1.032450        28.0944 
 155   0.0000       1.038208        28.2511 
 156   0.0000       1.040129        28.3034 
 157   0.0000       1.056424        28.7468 
 158   0.0000       1.069058        29.0906 
 159   0.0000       1.080898        29.4127 
 160   0.0000       1.096791        29.8452 
 161   0.0000       1.114213        30.3193 
 162   0.0000       1.121651        30.5217 
 163   0.0000       1.149286        31.2737 
 164   0.0000       1.164231        31.6803 
 165   0.0000       1.167154        31.7599 
 166   0.0000       1.172157        31.8960 
 167   0.0000       1.197099        32.5747 
 168   0.0000       1.206537        32.8316 
 169   0.0000       1.217831        33.1389 
 170   0.0000       1.236076        33.6353 
 171   0.0000       1.242379        33.8068 
 172   0.0000       1.281413        34.8690 
 173   0.0000       1.287271        35.0284 
 174   0.0000       1.314432        35.7675 
 175   0.0000       1.317148        35.8414 
 176   0.0000       1.332529        36.2599 
 177   0.0000       1.344237        36.5785 
 178   0.0000       1.345965        36.6256 
 179   0.0000       1.362709        37.0812 
 180   0.0000       1.387169        37.7468 
 181   0.0000       1.403326        38.1864 
 182   0.0000       1.405474        38.2449 
 183   0.0000       1.426498        38.8170 
 184   0.0000       1.430957        38.9383 
 185   0.0000       1.457351        39.6565 
 186   0.0000       1.464443        39.8495 
 187   0.0000       1.480788        40.2943 
 188   0.0000       1.498392        40.7733 
 189   0.0000       1.535743        41.7897 
 190   0.0000       1.547494        42.1094 
 191   0.0000       1.570645        42.7394 
 192   0.0000       1.579412        42.9780 
 193   0.0000       1.592874        43.3443 
 194   0.0000       1.601422        43.5769 
 195   0.0000       1.615724        43.9661 
 196   0.0000       1.624700        44.2103 
 197   0.0000       1.639030        44.6003 
 198   0.0000       1.658841        45.1394 
 199   0.0000       1.677894        45.6578 
 200   0.0000       1.681343        45.7517 
 201   0.0000       1.721726        46.8505 
 202   0.0000       1.728283        47.0290 
 203   0.0000       1.737329        47.2751 
 204   0.0000       1.758277        47.8452 
 205   0.0000       1.763951        47.9995 
 206   0.0000       1.776779        48.3486 
 207   0.0000       1.794399        48.8281 
 208   0.0000       1.799095        48.9559 
 209   0.0000       1.820336        49.5339 
 210   0.0000       1.855751        50.4975 
 211   0.0000       1.858550        50.5737 
 212   0.0000       1.869569        50.8735 
 213   0.0000       1.888293        51.3831 
 214   0.0000       1.890427        51.4411 
 215   0.0000       1.917907        52.1889 
 216   0.0000       1.929954        52.5167 
 217   0.0000       1.943010        52.8720 
 218   0.0000       1.946707        52.9726 
 219   0.0000       1.982424        53.9445 
 220   0.0000       1.990518        54.1648 
 221   0.0000       2.001934        54.4754 
 222   0.0000       2.014257        54.8107 
 223   0.0000       2.024281        55.0835 
 224   0.0000       2.035520        55.3893 
 225   0.0000       2.058916        56.0260 
 226   0.0000       2.081042        56.6280 
 227   0.0000       2.084320        56.7172 
 228   0.0000       2.086621        56.7798 
 229   0.0000       2.102439        57.2103 
 230   0.0000       2.116323        57.5881 
 231   0.0000       2.132899        58.0391 
 232   0.0000       2.151592        58.5478 
 233   0.0000       2.173127        59.1338 
 234   0.0000       2.195605        59.7454 
 235   0.0000       2.219747        60.4024 
 236   0.0000       2.227727        60.6195 
 237   0.0000       2.243049        61.0365 
 238   0.0000       2.247946        61.1697 
 239   0.0000       2.261799        61.5467 
 240   0.0000       2.274393        61.8894 
 241   0.0000       2.294578        62.4386 
 242   0.0000       2.306023        62.7501 
 243   0.0000       2.316803        63.0434 
 244   0.0000       2.334878        63.5353 
 245   0.0000       2.354628        64.0727 
 246   0.0000       2.374537        64.6144 
 247   0.0000       2.413548        65.6760 
 248   0.0000       2.426286        66.0226 
 249   0.0000       2.442759        66.4709 
 250   0.0000       2.447803        66.6081 
 251   0.0000       2.471935        67.2648 
 252   0.0000       2.483394        67.5766 
 253   0.0000       2.496947        67.9454 
 254   0.0000       2.514909        68.4341 
 255   0.0000       2.530750        68.8652 
 256   0.0000       2.552761        69.4642 
 257   0.0000       2.557351        69.5891 
 258   0.0000       2.577604        70.1402 
 259   0.0000       2.594034        70.5873 
 260   0.0000       2.621586        71.3370 
 261   0.0000       2.628856        71.5348 
 262   0.0000       2.655452        72.2585 
 263   0.0000       2.663697        72.4829 
 264   0.0000       2.673242        72.7426 
 265   0.0000       2.680533        72.9410 
 266   0.0000       2.684524        73.0496 
 267   0.0000       2.702021        73.5257 
 268   0.0000       2.717851        73.9565 
 269   0.0000       2.731897        74.3387 
 270   0.0000       2.746184        74.7275 
 271   0.0000       2.760873        75.1272 
 272   0.0000       2.777247        75.5727 
 273   0.0000       2.798690        76.1562 
 274   0.0000       2.808044        76.4108 
 275   0.0000       2.836195        77.1768 
 276   0.0000       2.842803        77.3566 
 277   0.0000       2.848120        77.5013 
 278   0.0000       2.861134        77.8554 
 279   0.0000       2.868996        78.0693 
 280   0.0000       2.896048        78.8055 
 281   0.0000       2.904790        79.0434 
 282   0.0000       2.916123        79.3518 
 283   0.0000       2.936254        79.8995 
 284   0.0000       2.952237        80.3344 
 285   0.0000       2.958760        80.5120 
 286   0.0000       2.964834        80.6772 
 287   0.0000       2.995015        81.4985 
 288   0.0000       3.009123        81.8824 
 289   0.0000       3.018953        82.1499 
 290   0.0000       3.033810        82.5542 
 291   0.0000       3.056615        83.1747 
 292   0.0000       3.065751        83.4233 
 293   0.0000       3.077815        83.7516 
 294   0.0000       3.078206        83.7623 
 295   0.0000       3.117306        84.8262 
 296   0.0000       3.123035        84.9821 
 297   0.0000       3.134237        85.2869 
 298   0.0000       3.156875        85.9029 
[...]
     52      -0.166296   0.004366   0.000702  -0.001028  -0.003019   0.002894
     53      -0.039269   0.001336   0.000132  -0.000150   0.000905  -0.000829
     54       0.014225   0.142678   0.006368   0.017421   0.007423   0.007132
     55      -0.074530  -0.708537   0.001556   0.003264   0.001302   0.000315
     56      -0.016000  -0.012585  -0.002217  -0.002578   0.001074   0.002615
     57      -0.058321  -0.513051   0.000383  -0.003209   0.002770   0.007255
     58      -0.039013  -0.326101  -0.002169   0.009815  -0.005824  -0.018665
     59       0.041472   0.310302   0.000767   0.001914   0.000209  -0.015398
     60       0.099307  -0.000606  -0.001989   0.002179  -0.000730   0.003060
     61      -0.360493   0.003528  -0.000794   0.000926   0.000093   0.000953
     62      -0.011436  -0.000180   0.000707  -0.000726   0.000145  -0.000926
     63      -0.000854   0.000028   0.000005  -0.000007  -0.000004   0.000001
     64       0.000388  -0.000009  -0.000006   0.000009   0.000000   0.000002
     65       0.000026   0.000005  -0.000002   0.000002  -0.000000  -0.000001
                 60         61         62         63         64         65    
      0       0.000532  -0.002237   0.002228  -0.056259   0.000041  -0.000049
      1       0.000309  -0.000510   0.001017  -0.020731  -0.000002   0.000016
      2      -0.000150   0.000627  -0.000648   0.015803  -0.000006   0.000016
      3       0.000283  -0.000351  -0.000519  -0.001363   0.000046  -0.000029
      4      -0.000141  -0.000120   0.000002  -0.000528   0.000008  -0.000000
      5      -0.000079   0.000133   0.000167   0.000453  -0.000012   0.000006
      6       0.000248  -0.000085  -0.000093   0.000011  -0.031080   0.061760
      7       0.000445   0.000087  -0.000117   0.000005  -0.046795  -0.037639
      8       0.000033   0.000055   0.000059   0.000085   0.002211  -0.032174
      9       0.000811  -0.000211  -0.000224  -0.000085  -0.000154  -0.000070
     10      -0.001792  -0.001010   0.000197   0.000126   0.000359   0.000256
     11      -0.000692   0.000997   0.000346   0.000136  -0.000292   0.000308
     12       0.002854  -0.003099  -0.000865  -0.000340   0.000364  -0.000133
     13       0.001297   0.000946  -0.001492  -0.000060   0.000240  -0.000200
     14      -0.001021   0.000929   0.000418   0.000102  -0.000036   0.000011
     15       0.000465   0.000185  -0.000069  -0.000253  -0.001850   0.002431
     16      -0.000806  -0.000677  -0.000017   0.000118  -0.002747  -0.001490
     17      -0.000344  -0.000223  -0.000040   0.000098  -0.001539  -0.002098
     18      -0.003424  -0.026642  -0.001629   0.003248  -0.000080  -0.000019
     19      -0.005514  -0.078934  -0.004390   0.001310   0.000060  -0.000067
     20       0.001514   0.015421   0.000924  -0.001218   0.000034   0.000000
     21       0.048087  -0.001785  -0.016226   0.000931   0.000163  -0.000012
     22      -0.064929   0.004709   0.017975  -0.000094  -0.000544   0.000107
     23      -0.010535   0.000270   0.003794  -0.000231   0.000051  -0.000097
     24       0.000421   0.003253   0.000166  -0.007139   0.000020   0.000007
     25      -0.000124  -0.001533  -0.000636   0.004448   0.000062  -0.000040
     26      -0.000133  -0.000912  -0.000004   0.001884  -0.000019   0.000008
     27       0.005356  -0.002270   0.028797  -0.000570  -0.000088   0.000095
     28       0.019136  -0.005297   0.076370   0.003854  -0.000036   0.000040
     29      -0.003051   0.001091  -0.014823  -0.000239   0.000000  -0.000027
     30       0.000125   0.000189   0.003281   0.003110  -0.000066   0.000037
     31       0.000803   0.000768  -0.001034  -0.001729  -0.000059   0.000039
     32      -0.000054  -0.000182  -0.000961  -0.000966   0.000016  -0.000008
     33      -0.012956   0.002473   0.002628   0.001292   0.001535   0.001929
     34       0.019436  -0.001283  -0.003533  -0.002879   0.000461  -0.001140
     35       0.011174  -0.001820  -0.002086  -0.001130   0.002493   0.001011
     36      -0.000977   0.003813   0.001290  -0.000315  -0.001573   0.000199
     37       0.001896   0.012390   0.002847   0.000586   0.001329   0.001171
     38      -0.000900  -0.013058  -0.002904  -0.000167  -0.002111  -0.000875
     39      -0.003711   0.002477   0.001591   0.002231   0.011717  -0.014085
     40      -0.000358   0.000540   0.000181   0.000233  -0.000389  -0.001184
     41       0.000431  -0.000155  -0.000049  -0.000682  -0.004261   0.006668
     42      -0.003165  -0.002275  -0.000225   0.000304  -0.007492  -0.008170
     43       0.009822   0.007163   0.000087  -0.001607   0.013101   0.014010
     44       0.004526   0.003974   0.000148  -0.000700   0.008887   0.007754
     45       0.024870   0.308142   0.016434  -0.010137  -0.000007   0.000178
     46       0.069073   0.925075   0.050931  -0.026419  -0.000343   0.000929
     47      -0.013704  -0.179152  -0.009735   0.005515   0.000002  -0.000214
     48      -0.571849   0.033441   0.158138  -0.000817  -0.003042   0.000063
     49       0.759031  -0.046865  -0.204359   0.000833   0.004416  -0.000236
     50       0.125386  -0.007390  -0.035015   0.000298   0.000801   0.000120
     51      -0.085878   0.023801  -0.326352  -0.012721   0.000257  -0.000128
     52      -0.241022   0.065819  -0.885754  -0.040498   0.000651  -0.000348
     53       0.045020  -0.012456   0.169674   0.007078  -0.000192   0.000075
     54      -0.003618   0.000797   0.001656   0.000569   0.707654  -0.607592
     55      -0.001978   0.000174   0.000635   0.000087   0.110257  -0.132016
     56       0.000858  -0.000881  -0.001051  -0.000972  -0.243728   0.182728
     57       0.000202   0.000209  -0.000319  -0.000461  -0.257742  -0.257805
     58      -0.003391  -0.000309   0.000969  -0.000045   0.552499   0.657670
     59      -0.001642  -0.000482   0.000230  -0.000204   0.228678   0.272333
     60      -0.009897   0.029321  -0.036809   0.914509  -0.000603   0.000542
     61      -0.002726   0.011350  -0.011897   0.295536  -0.000134   0.000141
     62       0.002771  -0.008650   0.010717  -0.263934   0.000155  -0.000141
     63      -0.000018   0.000033  -0.000024   0.000524  -0.000001   0.000001
     64       0.000002   0.000004  -0.000015   0.000262   0.000001  -0.000001
     65      -0.000002   0.000000   0.000003   0.000014   0.000002  -0.000001


-----------
IR SPECTRUM
-----------

 Mode   freq       eps      Int      T**2         TX        TY        TZ
       cm**-1   L/(mol*cm) km/mol    a.u.
----------------------------------------------------------------------------
  6:     13.85   0.000085    0.43  0.001923  (-0.042696 -0.007564  0.006574)
  7:     45.04   0.000033    0.17  0.000231  ( 0.002772  0.014496 -0.003654)
  8:     65.59   0.000078    0.39  0.000370  (-0.018448 -0.004534  0.003019)
  9:     96.27   0.000130    0.66  0.000421  ( 0.019787 -0.001696  0.005183)
 10:    136.54   0.000301    1.52  0.000689  ( 0.025709 -0.003159  0.004218)
 11:    170.01   0.000063    0.32  0.000116  ( 0.000077  0.010277 -0.003194)
 12:    219.23   0.001408    7.11  0.002004  (-0.037647  0.024190 -0.001233)
 13:    232.17   0.000433    2.19  0.000581  ( 0.002374 -0.002100  0.023903)
 14:    300.82   0.001226    6.19  0.001271  ( 0.020939 -0.027238 -0.009536)
 15:    322.15   0.005405   27.31  0.005235  (-0.049657  0.022473  0.047587)
 16:    340.34   0.000149    0.75  0.000136  ( 0.008078 -0.002672 -0.007988)
 17:    378.02   0.002938   14.85  0.002425  (-0.038503  0.027254 -0.014141)
 18:    440.98   0.000973    4.92  0.000689  (-0.015997 -0.002272 -0.020678)
 19:    447.64   0.000720    3.64  0.000502  ( 0.022342  0.000384 -0.001684)
 20:    493.50   0.002281   11.53  0.001443  (-0.037504  0.005752 -0.001705)
 21:    512.17   0.002111   10.67  0.001286  ( 0.033039 -0.011285  0.008202)
 22:    531.93   0.009431   47.66  0.005533  ( 0.055457  0.020492  0.045140)
 23:    592.35   0.000612    3.09  0.000322  ( 0.011651 -0.007207  0.011604)
 24:    623.02   0.000859    4.34  0.000430  (-0.002599  0.006320  0.019588)
 25:    698.56   0.002123   10.73  0.000948  ( 0.030008  0.005219  0.004538)
 26:    704.17   0.000496    2.51  0.000220  (-0.011727  0.004166 -0.008063)
 27:    781.56   0.007194   36.35  0.002872  ( 0.010437  0.004778  0.052351)
 28:    791.23   0.007514   37.97  0.002963  (-0.051680  0.016404 -0.004860)
 29:    814.04   0.001391    7.03  0.000533  (-0.001730 -0.000898 -0.023006)
 30:    841.46   0.000643    3.25  0.000238  ( 0.008138  0.008882  0.009662)
 31:    846.22   0.000716    3.62  0.000264  ( 0.015571 -0.003565 -0.002994)
 32:    860.02   0.012397   62.65  0.004498  (-0.037617  0.021998 -0.050982)
 33:    907.73   0.019361   97.84  0.006656  (-0.053202  0.009995 -0.061039)
 34:    951.75   0.004462   22.55  0.001463  ( 0.022873 -0.028667  0.010863)
 35:    984.19   0.016487   83.32  0.005228  ( 0.050334 -0.009146  0.051092)
 36:   1059.15   0.000327    1.65  0.000096  ( 0.008607  0.002838  0.003773)
 37:   1095.19   0.005408   27.33  0.001541  ( 0.033145  0.021013 -0.000864)
 38:   1117.53   0.000162    0.82  0.000045  (-0.001456 -0.001982 -0.006265)
 39:   1139.81   0.002960   14.96  0.000810  ( 0.018171 -0.021396  0.004740)
 40:   1172.59   0.001801    9.10  0.000479  (-0.017076  0.013440  0.002659)
 41:   1197.41   0.003401   17.19  0.000886  (-0.028024  0.003183 -0.009536)
 42:   1237.47   0.012539   63.37  0.003162  ( 0.039891 -0.038696 -0.008576)
 43:   1251.58   0.000359    1.81  0.000090  ( 0.006346  0.006893 -0.001324)
 44:   1296.14   0.006993   35.34  0.001684  (-0.035328  0.013896  0.015573)
 45:   1311.38   0.059435  300.36  0.014144  ( 0.112496 -0.022608 -0.031258)
 46:   1326.58   0.026892  135.90  0.006326  (-0.077266  0.018820 -0.001353)
 47:   1349.06   0.006378   32.23  0.001475  (-0.030374 -0.022007  0.008272)
 48:   1349.63   0.000960    4.85  0.000222  (-0.002619 -0.012721  0.007296)
 49:   1416.88   0.000743    3.75  0.000164  ( 0.005398  0.006165  0.009823)
 50:   1430.85   0.000263    1.33  0.000057  ( 0.000700  0.007294  0.001941)
 51:   1452.55   0.000260    1.32  0.000056  (-0.006777 -0.001237  0.002910)
 52:   1487.87   0.085208  430.61  0.017871  ( 0.129177 -0.017807 -0.029455)
 53:   1534.35   0.001306    6.60  0.000266  (-0.009773  0.013025 -0.000642)
 54:   1593.12   0.009267   46.83  0.001815  ( 0.040630  0.008613 -0.009501)
 55:   1613.24   0.002662   13.45  0.000515  (-0.015397 -0.016666  0.000377)
 56:   2917.28   0.011103   56.11  0.001188  (-0.017678  0.002462  0.029481)
 57:   2937.37   0.030833  155.81  0.003276  ( 0.051545  0.019578 -0.015344)
 58:   2957.80   0.008963   45.30  0.000946  ( 0.012571  0.025245 -0.012260)
 59:   2988.78   0.011178   56.49  0.001167  ( 0.024418 -0.021745 -0.009905)
 60:   3055.46   0.008228   41.58  0.000840  ( 0.022788 -0.016979 -0.005727)
 61:   3069.87   0.004329   21.87  0.000440  (-0.007148 -0.019094  0.004933)
 62:   3095.68   0.004586   23.18  0.000462  (-0.002515  0.021272 -0.001861)
 63:   3122.84   0.144607  730.78  0.014450  ( 0.112732  0.040102 -0.011570)
 64:   3351.83   0.001591    8.04  0.000148  ( 0.009932 -0.006992  0.000779)
 65:   3421.26   0.000718    3.63  0.000066  (-0.006343 -0.004266 -0.002662)

* The epsilon (eps) is given for a Dirac delta lineshape.
** The dipole moment derivative (T) already includes vibrational overlap.

The first frequency considered to be a vibration is 6
The total number of vibrations considered is 60


--------------------------
THERMOCHEMISTRY AT 298.15K
--------------------------

Temperature         ... 298.15 K
Pressure            ... 1.00 atm
Total Mass          ... 215.72 AMU

Throughout the following assumptions are being made:
  (1) The electronic state is orbitally nondegenerate
      but the spin degeneracy is treated
  (2) There are no thermally accessible electronically excited states
  (3) Hindered rotations indicated by low frequency modes are not
      treated as such but are treated as vibrations and this may
      cause some error
  (4) All equations used are the standard statistical mechanics
      equations for an ideal gas
  (5) All vibrations are strictly harmonic

freq.      13.85  E(vib)   ...       0.57 
freq.      45.04  E(vib)   ...       0.53 
freq.      65.59  E(vib)   ...       0.50 
freq.      96.27  E(vib)   ...       0.47 
freq.     136.54  E(vib)   ...       0.42 
freq.     170.01  E(vib)   ...       0.38 
freq.     219.23  E(vib)   ...       0.33 
freq.     232.17  E(vib)   ...       0.32 
freq.     300.82  E(vib)   ...       0.26 
freq.     322.15  E(vib)   ...       0.25 
freq.     340.34  E(vib)   ...       0.23 
freq.     378.02  E(vib)   ...       0.21 
freq.     440.98  E(vib)   ...       0.17 
freq.     447.64  E(vib)   ...       0.17 
freq.     493.50  E(vib)   ...       0.14 
freq.     512.17  E(vib)   ...       0.14 
freq.     531.93  E(vib)   ...       0.13 
freq.     592.35  E(vib)   ...       0.10 
freq.     623.02  E(vib)   ...       0.09 
freq.     698.56  E(vib)   ...       0.07 
freq.     704.17  E(vib)   ...       0.07 
freq.     781.56  E(vib)   ...       0.05 
freq.     791.23  E(vib)   ...       0.05 
freq.     814.04  E(vib)   ...       0.05 
freq.     841.46  E(vib)   ...       0.04 
freq.     846.22  E(vib)   ...       0.04 
freq.     860.02  E(vib)   ...       0.04 
freq.     907.73  E(vib)   ...       0.03 
freq.     951.75  E(vib)   ...       0.03 
freq.     984.19  E(vib)   ...       0.02 
freq.    1059.15  E(vib)   ...       0.02 
freq.    1095.19  E(vib)   ...       0.02 
freq.    1117.53  E(vib)   ...       0.01 
freq.    1139.81  E(vib)   ...       0.01 
freq.    1172.59  E(vib)   ...       0.01 
freq.    1197.41  E(vib)   ...       0.01 
freq.    1237.47  E(vib)   ...       0.01 
freq.    1251.58  E(vib)   ...       0.01 
freq.    1296.14  E(vib)   ...       0.01 
freq.    1311.38  E(vib)   ...       0.01 
freq.    1326.58  E(vib)   ...       0.01 
freq.    1349.06  E(vib)   ...       0.01 
freq.    1349.63  E(vib)   ...       0.01 
freq.    1416.88  E(vib)   ...       0.00 
freq.    1430.85  E(vib)   ...       0.00 
freq.    1452.55  E(vib)   ...       0.00 
freq.    1487.87  E(vib)   ...       0.00 
freq.    1534.35  E(vib)   ...       0.00 
freq.    1593.12  E(vib)   ...       0.00 
freq.    1613.24  E(vib)   ...       0.00 
freq.    2917.28  E(vib)   ...       0.00 
freq.    2937.37  E(vib)   ...       0.00 
freq.    2957.80  E(vib)   ...       0.00 
freq.    2988.78  E(vib)   ...       0.00 
freq.    3055.46  E(vib)   ...       0.00 
freq.    3069.87  E(vib)   ...       0.00 
freq.    3095.68  E(vib)   ...       0.00 
freq.    3122.84  E(vib)   ...       0.00 
freq.    3351.83  E(vib)   ...       0.00 
freq.    3421.26  E(vib)   ...       0.00 

------------
INNER ENERGY
------------

The inner energy is: U= E(el) + E(ZPE) + E(vib) + E(rot) + E(trans)
    E(el)   - is the total energy from the electronic structure calculation
              = E(kin-el) + E(nuc-el) + E(el-el) + E(nuc-nuc)
    E(ZPE)  - the the zero temperature vibrational energy from the frequency calculation
    E(vib)  - the the finite temperature correction to E(ZPE) due to population
              of excited vibrational states
    E(rot)  - is the rotational thermal energy
    E(trans)- is the translational thermal energy

Summary of contributions to the inner energy U:
Electronic energy                ...  -2156.01504019 Eh
Zero point energy                ...      0.16515141 Eh     103.63 kcal/mol
Thermal vibrational correction   ...      0.00967779 Eh       6.07 kcal/mol
Thermal rotational correction    ...      0.00141627 Eh       0.89 kcal/mol
Thermal translational correction ...      0.00141627 Eh       0.89 kcal/mol
-----------------------------------------------------------------------
Total thermal energy                  -2155.83737845 Eh


Summary of corrections to the electronic energy:
(perhaps to be used in another calculation)
Total thermal correction                  0.01251033 Eh       7.85 kcal/mol
Non-thermal (ZPE) correction              0.16515141 Eh     103.63 kcal/mol
-----------------------------------------------------------------------
Total correction                          0.17766174 Eh     111.48 kcal/mol


--------
ENTHALPY
--------

The enthalpy is H = U + kB*T
                kB is Boltzmann's constant
Total free energy                 ...  -2155.83737845 Eh 
Thermal Enthalpy correction       ...      0.00094421 Eh       0.59 kcal/mol
-----------------------------------------------------------------------
Total Enthalpy                    ...  -2155.83643424 Eh


Note: Only C1 symmetry has been detected, increase convergence thresholds 
      if your molecule has a higher symmetry. Symmetry factor of 1.0 is   
      used for the rotational entropy correction. 
 

Note: Rotational entropy computed according to Herzberg 
Infrared and Raman Spectra, Chapter V,1, Van Nostrand Reinhold, 1945 
Point Group:  C1, Symmetry Number:   1  
Rotational constants in cm-1:     0.071351     0.009378     0.008823 

Vibrational entropy computed according to the QRRHO of S. Grimme
Chem.Eur.J. 2012 18 9955


-------
ENTROPY
-------

The entropy contributions are T*S = T*(S(el)+S(vib)+S(rot)+S(trans))
     S(el)   - electronic entropy
     S(vib)  - vibrational entropy
     S(rot)  - rotational entropy
     S(trans)- translational entropy
The entropies will be listed as multiplied by the temperature to get
units of energy

Electronic entropy                ...      0.00065446 Eh      0.41 kcal/mol
Vibrational entropy               ...      0.01723783 Eh     10.82 kcal/mol
Rotational entropy                ...      0.01519477 Eh      9.53 kcal/mol
Translational entropy             ...      0.01996011 Eh     12.53 kcal/mol
-----------------------------------------------------------------------
Final entropy term                ...      0.05304716 Eh     33.29 kcal/mol

In case the symmetry of your molecule has not been determined correctly
or in case you have a reason to use a different symmetry number we print 
out the resulting rotational entropy values for sn=1,12 :
 --------------------------------------------------------
|  sn= 1 | S(rot)=       0.01519477 Eh      9.53 kcal/mol|
|  sn= 2 | S(rot)=       0.01454031 Eh      9.12 kcal/mol|
|  sn= 3 | S(rot)=       0.01415748 Eh      8.88 kcal/mol|
|  sn= 4 | S(rot)=       0.01388586 Eh      8.71 kcal/mol|
|  sn= 5 | S(rot)=       0.01367517 Eh      8.58 kcal/mol|
|  sn= 6 | S(rot)=       0.01350302 Eh      8.47 kcal/mol|
|  sn= 7 | S(rot)=       0.01335748 Eh      8.38 kcal/mol|
|  sn= 8 | S(rot)=       0.01323140 Eh      8.30 kcal/mol|
|  sn= 9 | S(rot)=       0.01312019 Eh      8.23 kcal/mol|
|  sn=10 | S(rot)=       0.01302071 Eh      8.17 kcal/mol|
|  sn=11 | S(rot)=       0.01293072 Eh      8.11 kcal/mol|
|  sn=12 | S(rot)=       0.01284857 Eh      8.06 kcal/mol|
 --------------------------------------------------------


-------------------
GIBBS FREE ENERGY
-------------------

The Gibbs free energy is G = H - T*S

Total enthalpy                    ...  -2155.83643424 Eh 
Total entropy correction          ...     -0.05304716 Eh    -33.29 kcal/mol
-----------------------------------------------------------------------
Final Gibbs free energy         ...  -2155.88948141 Eh

For completeness - the Gibbs free energy minus the electronic energy
G-E(el)                           ...      0.12555878 Eh     78.79 kcal/mol



Timings for individual modules:

Sum of individual times         ...     7658.501 sec (= 127.642 min)
GTO integral calculation        ...        4.371 sec (=   0.073 min)   0.1 %
SCF iterations                  ...      174.904 sec (=   2.915 min)   2.3 %
SCF Gradient evaluation         ...       64.842 sec (=   1.081 min)   0.8 %
Geometry relaxation             ...        0.158 sec (=   0.003 min)   0.0 %
Numerical frequency calculation ...     7414.226 sec (= 123.570 min)  96.8 %
                             ****ORCA TERMINATED NORMALLY****
TOTAL RUN TIME: 0 days 2 hours 7 minutes 8 seconds 629 msec
