
                                 *****************
                                 * O   R   C   A *
                                 *****************

                                            #,                                       
                                            ###                                      
                                            ####                                     
                                            #####                                    
                                            ######                                   
                                           ########,                                 
                                     ,,################,,,,,                         
                               ,,#################################,,                 
                          ,,##########################################,,             
                       ,#########################################, ''#####,          
                    ,#############################################,,   '####,        
                  ,##################################################,,,,####,       
                ,###########''''           ''''###############################       
              ,#####''   ,,,,##########,,,,          '''####'''          '####       
            ,##' ,,,,###########################,,,                        '##       
           ' ,,###''''                  '''############,,,                           
         ,,##''                                '''############,,,,        ,,,,,,###''
      ,#''                                            '''#######################'''  
     '                                                          ''''####''''         
             ,#######,   #######,   ,#######,      ##                                
            ,#'     '#,  ##    ##  ,#'     '#,    #''#        ######   ,####,        
            ##       ##  ##   ,#'  ##            #'  '#       #        #'  '#        
            ##       ##  #######   ##           ,######,      #####,   #    #        
            '#,     ,#'  ##    ##  '#,     ,#' ,#      #,         ##   #,  ,#        
             '#######'   ##     ##  '#######'  #'      '#     #####' # '####'        



                  #######################################################
                  #                        -***-                        #
                  #          Department of theory and spectroscopy      #
                  #    Directorship and core code : Frank Neese         #
                  #        Max Planck Institute fuer Kohlenforschung    #
                  #                Kaiser Wilhelm Platz 1               #
                  #                 D-45470 Muelheim/Ruhr               #
                  #                      Germany                        #
                  #                                                     #
                  #                  All rights reserved                #
                  #                        -***-                        #
                  #######################################################


                         Program Version 5.0.2 -  RELEASE  -


 With contributions from (in alphabetic order):
   Daniel Aravena         : Magnetic Suceptibility
   Michael Atanasov       : Ab Initio Ligand Field Theory (pilot matlab implementation)
   Alexander A. Auer      : GIAO ZORA, VPT2 properties, NMR spectrum
   Ute Becker             : Parallelization
   Giovanni Bistoni       : ED, misc. LED, open-shell LED, HFLD
   Martin Brehm           : Molecular dynamics
   Dmytro Bykov           : SCF Hessian
   Vijay G. Chilkuri      : MRCI spin determinant printing, contributions to CSF-ICE
   Dipayan Datta          : RHF DLPNO-CCSD density
   Achintya Kumar Dutta   : EOM-CC, STEOM-CC
   Dmitry Ganyushin       : Spin-Orbit,Spin-Spin,Magnetic field MRCI
   Miquel Garcia          : C-PCM and meta-GGA Hessian, CC/C-PCM, Gaussian charge scheme
   Yang Guo               : DLPNO-NEVPT2, F12-NEVPT2, CIM, IAO-localization
   Andreas Hansen         : Spin unrestricted coupled pair/coupled cluster methods
   Benjamin Helmich-Paris : MC-RPA, TRAH-SCF, COSX integrals
   Lee Huntington         : MR-EOM, pCC
   Robert Izsak           : Overlap fitted RIJCOSX, COSX-SCS-MP3, EOM
   Marcus Kettner         : VPT2
   Christian Kollmar      : KDIIS, OOCD, Brueckner-CCSD(T), CCSD density, CASPT2, CASPT2-K
   Simone Kossmann        : Meta GGA functionals, TD-DFT gradient, OOMP2, MP2 Hessian
   Martin Krupicka        : Initial AUTO-CI
   Lucas Lang             : DCDCAS
   Marvin Lechner         : AUTO-CI (C++ implementation), FIC-MRCC
   Dagmar Lenk            : GEPOL surface, SMD
   Dimitrios Liakos       : Extrapolation schemes; Compound Job, initial MDCI parallelization
   Dimitrios Manganas     : Further ROCIS development; embedding schemes
   Dimitrios Pantazis     : SARC Basis sets
   Anastasios Papadopoulos: AUTO-CI, single reference methods and gradients
   Taras Petrenko         : DFT Hessian,TD-DFT gradient, ASA, ECA, R-Raman, ABS, FL, XAS/XES, NRVS
   Peter Pinski           : DLPNO-MP2, DLPNO-MP2 Gradient
   Christoph Reimann      : Effective Core Potentials
   Marius Retegan         : Local ZFS, SOC
   Christoph Riplinger    : Optimizer, TS searches, QM/MM, DLPNO-CCSD(T), (RO)-DLPNO pert. Triples
   Tobias Risthaus        : Range-separated hybrids, TD-DFT gradient, RPA, STAB
   Michael Roemelt        : Original ROCIS implementation
   Masaaki Saitow         : Open-shell DLPNO-CCSD energy and density
   Barbara Sandhoefer     : DKH picture change effects
   Avijit Sen             : IP-ROCIS
   Kantharuban Sivalingam : CASSCF convergence, NEVPT2, FIC-MRCI
   Bernardo de Souza      : ESD, SOC TD-DFT
   Georgi Stoychev        : AutoAux, RI-MP2 NMR, DLPNO-MP2 response
   Willem Van den Heuvel  : Paramagnetic NMR
   Boris Wezisla          : Elementary symmetry handling
   Frank Wennmohs         : Technical directorship


 We gratefully acknowledge several colleagues who have allowed us to
 interface, adapt or use parts of their codes:
   Stefan Grimme, W. Hujo, H. Kruse, P. Pracht,  : VdW corrections, initial TS optimization,
                  C. Bannwarth, S. Ehlert          DFT functionals, gCP, sTDA/sTD-DF
   Ed Valeev, F. Pavosevic, A. Kumar             : LibInt (2-el integral package), F12 methods
   Garnet Chan, S. Sharma, J. Yang, R. Olivares  : DMRG
   Ulf Ekstrom                                   : XCFun DFT Library
   Mihaly Kallay                                 : mrcc  (arbitrary order and MRCC methods)
   Jiri Pittner, Ondrej Demel                    : Mk-CCSD
   Frank Weinhold                                : gennbo (NPA and NBO analysis)
   Christopher J. Cramer and Donald G. Truhlar   : smd solvation model
   Lars Goerigk                                  : TD-DFT with DH, B97 family of functionals
   V. Asgeirsson, H. Jonsson                     : NEB implementation
   FAccTs GmbH                                   : IRC, NEB, NEB-TS, DLPNO-Multilevel, CI-OPT
                                                   MM, QMMM, 2- and 3-layer-ONIOM, Crystal-QMMM,
                                                   LR-CPCM, SF, NACMEs, symmetry and pop. for TD-DFT,
                                                   nearIR, NL-DFT gradient (VV10), updates on ESD,
                                                   ML-optimized integration grids
   S Lehtola, MJT Oliveira, MAL Marques          : LibXC Library
   Liviu Ungur et al                             : ANISO software


 Your calculation uses the libint2 library for the computation of 2-el integrals
 For citations please refer to: http://libint.valeyev.net

 Your ORCA version has been built with support for libXC version: 5.1.0
 For citations please refer to: https://tddft.org/programs/libxc/

 This ORCA versions uses:
   CBLAS   interface :  Fast vector & matrix operations
   LAPACKE interface :  Fast linear algebra routines
   SCALAPACK package :  Parallel linear algebra routines
   Shared memory     :  Shared parallel matrices
   BLAS/LAPACK       :  OpenBLAS 0.3.15  USE64BITINT DYNAMIC_ARCH NO_AFFINITY Haswell SINGLE_THREADED
        Core in use  :  Haswell
   Copyright (c) 2011-2014, The OpenBLAS Project


Your calculation utilizes the atom-pairwise dispersion correction
with the Becke-Johnson damping scheme (D3BJ)
Cite in your paper:
S.Grimme, S.Ehrlich, L.Goerigk, J Comput Chem, (2011), 32, 1456–1465 
S.Grimme, J.Antony, S.Ehrlich and H.Krieg, J.Chem.Phys., 132, (2010), 154104 
   

================================================================================

----- Orbital basis set information -----
Your calculation utilizes the basis: def2-TZVP
   F. Weigend and R. Ahlrichs, Phys. Chem. Chem. Phys. 7, 3297 (2005).

----- AuxJ basis set information -----
Your calculation utilizes the auxiliary basis: def2/J
   F. Weigend, Phys. Chem. Chem. Phys. 8, 1057 (2006).

================================================================================
                                        WARNINGS
                       Please study these warnings very carefully!
================================================================================


INFO   : the flag for use of the SHARK integral package has been found!

Your calculation utilizes the atom-pairwise dispersion correction
with the Becke-Johnson damping scheme (D3BJ)
Cite in your paper:
S.Grimme, S.Ehrlich, L.Goerigk, J Comput Chem, (2011), 32, 1456–1465 
S.Grimme, J.Antony, S.Ehrlich and H.Krieg, J.Chem.Phys., 132, (2010), 154104 
   

================================================================================

----- Orbital basis set information -----
Your calculation utilizes the basis: def2-TZVP
   F. Weigend and R. Ahlrichs, Phys. Chem. Chem. Phys. 7, 3297 (2005).

----- AuxJ basis set information -----
Your calculation utilizes the auxiliary basis: def2/J
   F. Weigend, Phys. Chem. Chem. Phys. 8, 1057 (2006).

================================================================================
                                        WARNINGS
                       Please study these warnings very carefully!
================================================================================


WARNING: MOInp is set but Guess=PModel. MOInp will be ignored!
         To read the initial guess from a file you must also specify
         'MORead' in the simple input or 'Guess MORead' in the %scf block


INFO   : the flag for use of the SHARK integral package has been found!

Your calculation utilizes the atom-pairwise dispersion correction
with the Becke-Johnson damping scheme (D3BJ)
Cite in your paper:
S.Grimme, S.Ehrlich, L.Goerigk, J Comput Chem, (2011), 32, 1456–1465 
S.Grimme, J.Antony, S.Ehrlich and H.Krieg, J.Chem.Phys., 132, (2010), 154104 
   

================================================================================

----- Orbital basis set information -----
Your calculation utilizes the basis: def2-TZVP
   F. Weigend and R. Ahlrichs, Phys. Chem. Chem. Phys. 7, 3297 (2005).

----- AuxJ basis set information -----
Your calculation utilizes the auxiliary basis: def2/J
   F. Weigend, Phys. Chem. Chem. Phys. 8, 1057 (2006).

================================================================================
                                        WARNINGS
                       Please study these warnings very carefully!
================================================================================


WARNING: MOInp is set but Guess=PModel. MOInp will be ignored!
         To read the initial guess from a file you must also specify
         'MORead' in the simple input or 'Guess MORead' in the %scf block


INFO   : the flag for use of the SHARK integral package has been found!

Your calculation utilizes the atom-pairwise dispersion correction
with the Becke-Johnson damping scheme (D3BJ)
Cite in your paper:
S.Grimme, S.Ehrlich, L.Goerigk, J Comput Chem, (2011), 32, 1456–1465 
S.Grimme, J.Antony, S.Ehrlich and H.Krieg, J.Chem.Phys., 132, (2010), 154104 
   

================================================================================

----- Orbital basis set information -----
Your calculation utilizes the basis: def2-TZVP
   F. Weigend and R. Ahlrichs, Phys. Chem. Chem. Phys. 7, 3297 (2005).

----- AuxJ basis set information -----
Your calculation utilizes the auxiliary basis: def2/J
   F. Weigend, Phys. Chem. Chem. Phys. 8, 1057 (2006).

================================================================================
                                        WARNINGS
                       Please study these warnings very carefully!
================================================================================


WARNING: MOInp is set but Guess=PModel. MOInp will be ignored!
         To read the initial guess from a file you must also specify
         'MORead' in the simple input or 'Guess MORead' in the %scf block


INFO   : the flag for use of the SHARK integral package has been found!

Your calculation utilizes the atom-pairwise dispersion correction
with the Becke-Johnson damping scheme (D3BJ)
Cite in your paper:
S.Grimme, S.Ehrlich, L.Goerigk, J Comput Chem, (2011), 32, 1456–1465 
S.Grimme, J.Antony, S.Ehrlich and H.Krieg, J.Chem.Phys., 132, (2010), 154104 
   

================================================================================

----- Orbital basis set information -----
Your calculation utilizes the basis: def2-TZVP
   F. Weigend and R. Ahlrichs, Phys. Chem. Chem. Phys. 7, 3297 (2005).

----- AuxJ basis set information -----
Your calculation utilizes the auxiliary basis: def2/J
   F. Weigend, Phys. Chem. Chem. Phys. 8, 1057 (2006).

================================================================================
                                        WARNINGS
                       Please study these warnings very carefully!
================================================================================


WARNING: MOInp is set but Guess=PModel. MOInp will be ignored!
         To read the initial guess from a file you must also specify
         'MORead' in the simple input or 'Guess MORead' in the %scf block


INFO   : the flag for use of the SHARK integral package has been found!

================================================================================
                                       INPUT FILE
================================================================================
NAME = ex.inp
|  1> ! PBE D3 def2-TZVP opt PModel NOAUTOSTART cpcm(water)
|  2> 
|  3> %pal nprocs=16 end
|  4> %geom maxiter=150 end 
|  5> %base "1_M0001"
|  6> 
|  7> * xyz 0 1
|  8> O        2.915711     -2.145336     -0.071780
|  9> C        2.182078     -1.035316     -0.216318
| 10> C        0.729710     -1.105456     -0.496832
| 11> C       -0.009761      0.014983     -0.639845
| 12> C       -1.496476     -0.059044     -0.905511
| 13> C       -2.271812     -0.345994      0.408601
| 14> N       -2.054248      0.710545      1.426609
| 15> H       -2.600459      0.540476      2.259362
| 16> H       -1.091500      0.765704      1.725095
| 17> H       -2.317673      1.622921      1.083567
| 18> C        0.660670      1.326672     -0.513475
| 19> C        1.982081      1.393560     -0.260573
| 20> C        2.770665      0.160014     -0.105508
| 21> O        4.241447      0.249090      0.178348
| 22> H        2.428299     -2.956218     -0.163779
| 23> H        0.249945     -2.080013     -0.586611
| 24> H       -1.854382      0.888174     -1.339070
| 25> H       -1.703849     -0.854101     -1.640670
| 26> H       -3.348370     -0.416589      0.171998
| 27> H       -1.952718     -1.323610      0.810152
| 28> H        0.082070      2.246096     -0.608310
| 29> H        2.484339      2.350932     -0.223869
| 30> *
| 31> 
| 32> $new_job
| 33> 
| 34> ! PBE D3 def2-TZVP opt PModel NOAUTOSTART cpcm(water)
| 35> %pal nprocs=16 end
| 36> %geom maxiter=150 end
| 37> %base "2_M0002"
| 38> 
| 39> * xyz 0 1
| 40> O        3.036782     -1.702535     -0.306303
| 41> C        2.228842     -0.635493     -0.300185
| 42> C        0.786021     -0.762563     -0.609398
| 43> C       -0.028158      0.314784     -0.598195
| 44> C       -1.507463      0.201663     -0.890934
| 45> C       -2.321226      0.162624      0.430607
| 46> N       -1.965618     -1.005658      1.272309
| 47> H       -2.537300     -1.050369      2.104141
| 48> H       -2.095244     -1.877224      0.779303
| 49> H       -1.007543     -0.975567      1.588679
| 50> C        0.550259      1.635478     -0.274342
| 51> C        1.862765      1.755194      0.003516
| 52> C        2.733302      0.568036     -0.009269
| 53> O        4.193050      0.713740      0.306352
| 54> H        2.607585     -2.522971     -0.521281
| 55> H        0.379714     -1.746234     -0.843910
| 56> H       -1.820982      1.072411     -1.489556
| 57> H       -1.729404     -0.699520     -1.484919
| 58> H       -2.142203      1.096347      0.991942
| 59> H       -3.396004      0.123931      0.178914
| 60> H       -0.093763      2.515081     -0.246660
| 61> H        2.297513      2.729453      0.183049
| 62> *
| 63> 
| 64> $new_job
| 65> 
| 66> ! PBE D3 def2-TZVP opt PModel NOAUTOSTART cpcm(water)
| 67> %pal nprocs=16 end
| 68> %geom maxiter=150 end
| 69> %base "3_M0003"
| 70> 
| 71> * xyz 0 1
| 72> O        3.266227     -1.923031      0.058566
| 73> C        2.503268     -0.827159     -0.032295
| 74> C        1.054011     -0.921893     -0.322149
| 75> C        0.288854      0.183707     -0.415727
| 76> C       -1.194899      0.091014     -0.693917
| 77> C       -1.967532     -0.104657      0.637082
| 78> N       -3.430612     -0.190154      0.411878
| 79> H       -3.933738     -0.317680      1.278720
| 80> H       -3.794872      0.647699     -0.018286
| 81> H       -3.674344     -0.966536     -0.186082
| 82> C        0.922929      1.504249     -0.218418
| 83> C        2.238153      1.594719      0.046769
| 84> C        3.059206      0.376299      0.141631
| 85> O        4.526340      0.490008      0.435425
| 86> H        2.801305     -2.741018     -0.076727
| 87> H        0.601652     -1.903620     -0.462029
| 88> H       -1.542037      1.011985     -1.188480
| 89> H       -1.407397     -0.748654     -1.375108
| 90> H       -1.610079     -1.028101      1.125669
| 91> H       -1.740961      0.742621      1.308043
| 92> H        0.317907      2.410130     -0.268514
| 93> H        2.717459      2.564001      0.129175
| 94> *
| 95> 
| 96> $new_job
| 97> 
| 98> ! PBE D3 def2-TZVP opt PModel NOAUTOSTART cpcm(water)
| 99> %pal nprocs=16 end
|100> %geom maxiter=150 end
|101> %base "4_M0004"
|102> 
|103> * xyz 0 1
|104> O        2.804506     -2.218687     -0.081543
|105> C        2.120519     -1.074250     -0.222137
|106> C        0.674742     -1.137289     -0.501641
|107> C       -0.071467     -0.023011     -0.650644
|108> C       -1.557129     -0.106674     -0.916292
|109> C       -2.331361     -0.388052      0.399610
|110> N       -2.120642      0.677585      1.409538
|111> H       -2.666218      0.510628      2.243336
|112> H       -1.158387      0.740868      1.707997
|113> H       -2.389395      1.585677      1.059335
|114> C        0.597476      1.288888     -0.530592
|115> C        1.919106      1.353869     -0.278134
|116> C        2.714693      0.124452     -0.115613
|117> O        4.183718      0.254884      0.167795
|118> H        3.734157     -2.132929      0.097952
|119> H        0.223876     -2.125970     -0.581469
|120> H       -1.919042      0.835501     -1.357442
|121> H       -1.758928     -0.908993     -1.645073
|122> H       -3.407345     -0.466972      0.163048
|123> H       -2.006376     -1.360644      0.808617
|124> H        0.018401      2.207518     -0.630200
|125> H        2.419023      2.312562     -0.244965
|126> *
|127> 
|128> $new_job
|129> 
|130> ! PBE D3 def2-TZVP opt PModel NOAUTOSTART cpcm(water)
|131> %pal nprocs=16 end
|132> %geom maxiter=150 end
|133> %base "5_M0005"
|134> 
|135> * xyz 0 1
|136> O        2.618028     -1.924163      1.148274
|137> C        1.892695     -0.804126      1.018802
|138> C        0.454162     -0.917308      0.718116
|139> C       -0.312430      0.161677      0.583028
|140> C       -1.792763      0.047744      0.298897
|141> C       -2.076905      0.288552     -1.208205
|142> N       -1.400607     -0.710281     -2.071197
|143> H       -1.633481     -0.576239     -3.045140
|144> H       -0.394596     -0.654169     -2.010265
|145> H       -1.666778     -1.654558     -1.832485
|146> C        0.304564      1.494500      0.736602
|147> C        1.600021      1.615279      1.003317
|148> C        2.439451      0.414011      1.154984
|149> O        3.898593      0.594624      1.461011
|150> H        3.541335     -1.806583      1.341918
|151> H        0.048366     -1.922922      0.613273
|152> H       -2.178466     -0.942209      0.591250
|153> H       -2.330548      0.799415      0.899384
|154> H       -3.168301      0.239800     -1.370850
|155> H       -1.742895      1.305141     -1.480160
|156> H       -0.311453      2.389346      0.641705
|157> H        2.079814      2.604480      1.061713
|158> *
|159> 
|160> 
|161> 
|162> 
|163>                          ****END OF INPUT****
================================================================================


                 $$$$$$$$$$$$$$$$$$$$$$$$$$$$$$$$$$$$$$$$$$$$$$ 
                 $ THERE ARE  5 JOBS TO BE PROCESSED THIS RUN $
                 $$$$$$$$$$$$$$$$$$$$$$$$$$$$$$$$$$$$$$$$$$$$$$ 




                 $$$$$$$$$$$$$$$$  JOB NUMBER  1 $$$$$$$$$$$$$$


                       *****************************
                       * Geometry Optimization Run *
                       *****************************

Geometry optimization settings:
Update method            Update   .... BFGS
Choice of coordinates    CoordSys .... Z-matrix Internals
Initial Hessian          InHess   .... Almoef's Model

Convergence Tolerances:
Energy Change            TolE     ....  5.0000e-06 Eh
Max. Gradient            TolMAXG  ....  3.0000e-04 Eh/bohr
RMS Gradient             TolRMSG  ....  1.0000e-04 Eh/bohr
Max. Displacement        TolMAXD  ....  4.0000e-03 bohr
RMS Displacement         TolRMSD  ....  2.0000e-03 bohr
Strict Convergence                ....  False
------------------------------------------------------------------------------
                        ORCA OPTIMIZATION COORDINATE SETUP
------------------------------------------------------------------------------

The optimization will be done in new redundant internal coordinates
Making redundant internal coordinates   ...  (new redundants) done
Evaluating the initial hessian          ...  (Almloef) done
Evaluating the coordinates              ...  done
Calculating the B-matrix                .... done
Calculating the G-matrix                .... done
Diagonalizing the G-matrix              .... done
Small eigenvalue found = 1.483e-02
Small eigenvalue found = 2.832e-02
The first mode is                       ....   49
The number of degrees of freedom        ....   60

    -----------------------------------------------------------------
                    Redundant Internal Coordinates


    -----------------------------------------------------------------
         Definition                    Initial Value    Approx d2E/dq
    -----------------------------------------------------------------
      1. B(C   1,O   0)                  1.3384         0.676451   
      2. B(C   2,C   1)                  1.4809         0.447465   
      3. B(C   3,C   2)                  1.3501         0.723544   
      4. B(C   4,C   3)                  1.5121         0.398998   
      5. B(C   5,C   4)                  1.5525         0.343889   
      6. B(N   6,C   5)                  1.4832         0.397324   
      7. B(H   7,N   6)                  1.0103         0.432199   
      8. B(H   8,N   6)                  1.0095         0.433559   
      9. B(H   9,N   6)                  1.0097         0.433180   
     10. B(C  10,C   3)                  1.4785         0.451373   
     11. B(C  11,C  10)                  1.3471         0.731564   
     12. B(C  12,C  11)                  1.4723         0.461849   
     13. B(C  12,C   1)                  1.3370         0.759139   
     14. B(O  13,C  12)                  1.5006         0.372794   
     15. B(H  14,O   0)                  0.9506         0.538305   
     16. B(H  15,C   2)                  1.0900         0.360163   
     17. B(H  16,C   4)                  1.1015         0.345210   
     18. B(H  17,C   4)                  1.1025         0.343897   
     19. B(H  18,C   5)                  1.1045         0.341408   
     20. B(H  19,C   5)                  1.1040         0.342059   
     21. B(H  20,C  10)                  1.0905         0.359486   
     22. B(H  21,C  11)                  1.0817         0.371188   
     23. A(C   1,O   0,H  14)          114.5812         0.377975   
     24. A(C   2,C   1,C  12)          119.3279         0.424542   
     25. A(O   0,C   1,C  12)          119.4220         0.454411   
     26. A(O   0,C   1,C   2)          121.2501         0.413207   
     27. A(C   1,C   2,C   3)          121.1947         0.420915   
     28. A(C   1,C   2,H  15)          119.3176         0.334140   
     29. A(C   3,C   2,H  15)          119.4875         0.362308   
     30. A(C   2,C   3,C  10)          118.6108         0.421569   
     31. A(C   2,C   3,C   4)          121.0996         0.412413   
     32. A(C   4,C   3,C  10)          120.2847         0.379653   
     33. A(C   3,C   4,H  17)          109.7179         0.325376   
     34. A(C   5,C   4,H  16)          109.2586         0.317753   
     35. A(C   3,C   4,H  16)          110.2754         0.325580   
     36. A(H  16,C   4,H  17)          107.2504         0.286847   
     37. A(C   5,C   4,H  17)          109.7050         0.317556   
     38. A(C   3,C   4,C   5)          110.5703         0.362300   
     39. A(N   6,C   5,H  18)          109.6045         0.322823   
     40. A(C   4,C   5,H  18)          108.4971         0.317180   
     41. A(C   4,C   5,N   6)          112.0883         0.359794   
     42. A(C   4,C   5,H  19)          109.0985         0.317279   
     43. A(H  18,C   5,H  19)          107.6402         0.286112   
     44. A(N   6,C   5,H  19)          109.8005         0.322924   
     45. A(C   5,N   6,H   8)          112.4429         0.332941   
     46. A(C   5,N   6,H   7)          111.5006         0.332767   
     47. A(H   8,N   6,H   9)          107.4518         0.303405   
     48. A(H   7,N   6,H   9)          106.9234         0.303253   
     49. A(C   5,N   6,H   9)          111.8521         0.332893   
     50. A(H   7,N   6,H   8)          106.3253         0.303295   
     51. A(C   3,C  10,C  11)          120.3260         0.422400   
     52. A(C  11,C  10,H  20)          119.6671         0.362874   
     53. A(C   3,C  10,H  20)          119.9990         0.334519   
     54. A(C  12,C  11,H  21)          119.2919         0.337593   
     55. A(C  10,C  11,H  21)          120.3832         0.364867   
     56. A(C  10,C  11,C  12)          120.2386         0.424135   
     57. A(C  11,C  12,O  13)          119.6818         0.374341   
     58. A(C   1,C  12,O  13)          120.0163         0.408310   
     59. A(C   1,C  12,C  11)          120.3019         0.426954   
     60. D(C   2,C   1,O   0,H  14)     -0.0122         0.034050   
     61. D(C  12,C   1,O   0,H  14)    179.9866         0.034050   
     62. D(C   3,C   2,C   1,O   0)    179.8695         0.013652   
     63. D(C   3,C   2,C   1,C  12)     -0.1293         0.013652   
     64. D(H  15,C   2,C   1,O   0)      0.0310         0.013652   
     65. D(H  15,C   2,C   1,C  12)   -179.9679         0.013652   
     66. D(C   4,C   3,C   2,C   1)   -179.0666         0.037085   
     67. D(C  10,C   3,C   2,H  15)    179.9643         0.037085   
     68. D(C  10,C   3,C   2,C   1)      0.1261         0.037085   
     69. D(C   4,C   3,C   2,H  15)      0.7717         0.037085   
     70. D(H  16,C   4,C   3,C  10)     20.9081         0.011817   
     71. D(H  16,C   4,C   3,C   2)   -159.9127         0.011817   
     72. D(H  17,C   4,C   3,C   2)    -41.9932         0.011817   
     73. D(C   5,C   4,C   3,C   2)     79.1430         0.011817   
     74. D(C   5,C   4,C   3,C  10)   -100.0362         0.011817   
     75. D(H  17,C   4,C   3,C  10)    138.8275         0.011817   
     76. D(H  19,C   5,C   4,H  17)     59.4639         0.009556   
     77. D(H  19,C   5,C   4,H  16)    176.7735         0.009556   
     78. D(H  18,C   5,C   4,H  17)    -57.5363         0.009556   
     79. D(H  18,C   5,C   4,H  16)     59.7733         0.009556   
     80. D(H  18,C   5,C   4,C   3)   -178.6802         0.009556   
     81. D(H  19,C   5,C   4,C   3)    -61.6800         0.009556   
     82. D(N   6,C   5,C   4,H  17)   -178.7070         0.009556   
     83. D(N   6,C   5,C   4,H  16)    -61.3975         0.009556   
     84. D(N   6,C   5,C   4,C   3)     60.1491         0.009556   
     85. D(H   8,N   6,C   5,H  18)    175.7850         0.014430   
     86. D(H   8,N   6,C   5,C   4)    -63.6846         0.014430   
     87. D(H   7,N   6,C   5,H  19)    -61.5709         0.014430   
     88. D(H   7,N   6,C   5,H  18)     56.4721         0.014430   
     89. D(H   8,N   6,C   5,H  19)     57.7420         0.014430   
     90. D(H   7,N   6,C   5,C   4)    177.0025         0.014430   
     91. D(H   9,N   6,C   5,H  19)    178.7555         0.014430   
     92. D(H   9,N   6,C   5,H  18)    -63.2015         0.014430   
     93. D(H   9,N   6,C   5,C   4)     57.3290         0.014430   
     94. D(H  20,C  10,C   3,C   4)      0.2201         0.013886   
     95. D(H  20,C  10,C   3,C   2)   -178.9794         0.013886   
     96. D(C  11,C  10,C   3,C   4)    179.1865         0.013886   
     97. D(C  11,C  10,C   3,C   2)     -0.0130         0.013886   
     98. D(H  21,C  11,C  10,H  20)     -4.5302         0.037988   
     99. D(H  21,C  11,C  10,C   3)    176.4999         0.037988   
    100. D(C  12,C  11,C  10,H  20)    178.8724         0.037988   
    101. D(C  12,C  11,C  10,C   3)     -0.0975         0.037988   
    102. D(O  13,C  12,C  11,H  21)      3.4697         0.014529   
    103. D(O  13,C  12,C  11,C  10)   -179.8958         0.014529   
    104. D(C   1,C  12,C  11,H  21)   -176.5394         0.014529   
    105. D(C   1,C  12,C  11,C  10)      0.0951         0.014529   
    106. D(O  13,C  12,C   1,C   2)   -179.9926         0.041196   
    107. D(O  13,C  12,C   1,O   0)      0.0085         0.041196   
    108. D(C  11,C  12,C   1,C   2)      0.0165         0.041196   
    109. D(C  11,C  12,C   1,O   0)   -179.9823         0.041196   
    -----------------------------------------------------------------

Number of atoms                         .... 22
Number of degrees of freedom            .... 109

         *************************************************************
         *                GEOMETRY OPTIMIZATION CYCLE   1            *
         *************************************************************
---------------------------------
CARTESIAN COORDINATES (ANGSTROEM)
---------------------------------
  O      2.915711   -2.145336   -0.071780
  C      2.182078   -1.035316   -0.216318
  C      0.729710   -1.105456   -0.496832
  C     -0.009761    0.014983   -0.639845
  C     -1.496476   -0.059044   -0.905511
  C     -2.271812   -0.345994    0.408601
  N     -2.054248    0.710545    1.426609
  H     -2.600459    0.540476    2.259362
  H     -1.091500    0.765704    1.725095
  H     -2.317673    1.622921    1.083567
  C      0.660670    1.326672   -0.513475
  C      1.982081    1.393560   -0.260573
  C      2.770665    0.160014   -0.105508
  O      4.241447    0.249090    0.178348
  H      2.428299   -2.956218   -0.163779
  H      0.249945   -2.080013   -0.586611
  H     -1.854382    0.888174   -1.339070
  H     -1.703849   -0.854101   -1.640670
  H     -3.348370   -0.416589    0.171998
  H     -1.952718   -1.323610    0.810152
  H      0.082070    2.246096   -0.608310
  H      2.484339    2.350932   -0.223869

----------------------------
CARTESIAN COORDINATES (A.U.)
----------------------------
  NO LB      ZA    FRAG     MASS         X           Y           Z
   0 O     8.0000    0    15.999    5.509895   -4.054098   -0.135645
   1 C     6.0000    0    12.011    4.123530   -1.956464   -0.408782
   2 C     6.0000    0    12.011    1.378952   -2.089009   -0.938876
   3 C     6.0000    0    12.011   -0.018446    0.028314   -1.209132
   4 C     6.0000    0    12.011   -2.827930   -0.111577   -1.711168
   5 C     6.0000    0    12.011   -4.293103   -0.653834    0.772144
   6 N     7.0000    0    14.007   -3.881966    1.342735    2.695900
   7 H     1.0000    0     1.008   -4.914155    1.021352    4.269575
   8 H     1.0000    0     1.008   -2.062636    1.446971    3.259957
   9 H     1.0000    0     1.008   -4.379767    3.066876    2.047645
  10 C     6.0000    0    12.011    1.248485    2.507047   -0.970327
  11 C     6.0000    0    12.011    3.745590    2.633447   -0.492412
  12 C     6.0000    0    12.011    5.235798    0.302383   -0.199381
  13 O     8.0000    0    15.999    8.015173    0.470712    0.337029
  14 H     1.0000    0     1.008    4.588820   -5.586442   -0.309497
  15 H     1.0000    0     1.008    0.472328   -3.930655   -1.108534
  16 H     1.0000    0     1.008   -3.504274    1.678406   -2.530476
  17 H     1.0000    0     1.008   -3.219808   -1.614017   -3.100417
  18 H     1.0000    0     1.008   -6.327502   -0.787239    0.325029
  19 H     1.0000    0     1.008   -3.690102   -2.501260    1.530965
  20 H     1.0000    0     1.008    0.155090    4.244506   -1.149539
  21 H     1.0000    0     1.008    4.694720    4.442618   -0.423051

--------------------------------
INTERNAL COORDINATES (ANGSTROEM)
--------------------------------
 O      0   0   0     0.000000000000     0.00000000     0.00000000
 C      1   0   0     1.338377006875     0.00000000     0.00000000
 C      2   1   0     1.480871544470   121.25010416     0.00000000
 C      3   2   1     1.350056899072   121.19472179   179.86949607
 C      4   3   2     1.512078011053   121.09957099   180.93339906
 C      5   4   3     1.552538747967   110.57031942    79.14304527
 N      6   5   4     1.483222518937   112.08826820    60.14906177
 H      7   6   5     1.010320483951   111.50064589   177.00253813
 H      7   6   5     1.009465263880   112.44288803   296.31544251
 H      7   6   5     1.009703179041   111.85207897    57.32899260
 C      4   3   2     1.478504357580   118.61080934     0.12607216
 C     11   4   3     1.347056218971   120.32595263     0.00000000
 C      2   1   3     1.336984413361   119.42202592   179.99882376
 O     13   2   1     1.500569376615   120.01627640     0.00000000
 H      1   2   3     0.950559778062   114.58122247     0.00000000
 H      3   2   1     1.089952324790   119.31762277     0.03097452
 H      5   4   3     1.101495370322   110.27538276   200.08730662
 H      5   4   3     1.102532516373   109.71790168   318.00675934
 H      6   5   4     1.104509737847   108.49705429   181.31978110
 H      6   5   4     1.103991499013   109.09847051   298.32002061
 H     11   4   3     1.090464180522   119.99895977   181.02060178
 H     12  11   4     1.081744622618   120.38317161   176.49992583

---------------------------
INTERNAL COORDINATES (A.U.)
---------------------------
 O      0   0   0     0.000000000000     0.00000000     0.00000000
 C      1   0   0     2.529166006932     0.00000000     0.00000000
 C      2   1   0     2.798441658565   121.25010416     0.00000000
 C      3   2   1     2.551237804456   121.19472179   179.86949607
 C      4   3   2     2.857413334015   121.09957099   180.93339906
 C      5   4   3     2.933873045959   110.57031942    79.14304527
 N      6   5   4     2.802884356455   112.08826820    60.14906177
 H      7   6   5     1.909229022158   111.50064589   177.00253813
 H      7   6   5     1.907612890440   112.44288803   296.31544251
 H      7   6   5     1.908062484937   111.85207897    57.32899260
 C      4   3   2     2.793968323635   118.61080934     0.12607216
 C     11   4   3     2.545567340851   120.32595263     0.00000000
 C      2   1   3     2.526534386573   119.42202592   179.99882376
 O     13   2   1     2.835665166752   120.01627640     0.00000000
 H      1   2   3     1.796297654458   114.58122247     0.00000000
 H      3   2   1     2.059711392884   119.31762277     0.03097452
 H      5   4   3     2.081524587691   110.27538276   200.08730662
 H      5   4   3     2.083484509687   109.71790168   318.00675934
 H      6   5   4     2.087220916779   108.49705429   181.31978110
 H      6   5   4     2.086241587312   109.09847051   298.32002061
 H     11   4   3     2.060678660037   119.99895977   181.02060178
 H     12  11   4     2.044201083591   120.38317161   176.49992583

---------------------
BASIS SET INFORMATION
---------------------
There are 4 groups of distinct atoms

 Group   1 Type O   : 11s6p2d1f contracted to 5s3p2d1f pattern {62111/411/11/1}
 Group   2 Type C   : 11s6p2d1f contracted to 5s3p2d1f pattern {62111/411/11/1}
 Group   3 Type N   : 11s6p2d1f contracted to 5s3p2d1f pattern {62111/411/11/1}
 Group   4 Type H   : 5s1p contracted to 3s1p pattern {311/1}

Atom   0O    basis set group =>   1
Atom   1C    basis set group =>   2
Atom   2C    basis set group =>   2
Atom   3C    basis set group =>   2
Atom   4C    basis set group =>   2
Atom   5C    basis set group =>   2
Atom   6N    basis set group =>   3
Atom   7H    basis set group =>   4
Atom   8H    basis set group =>   4
Atom   9H    basis set group =>   4
Atom  10C    basis set group =>   2
Atom  11C    basis set group =>   2
Atom  12C    basis set group =>   2
Atom  13O    basis set group =>   1
Atom  14H    basis set group =>   4
Atom  15H    basis set group =>   4
Atom  16H    basis set group =>   4
Atom  17H    basis set group =>   4
Atom  18H    basis set group =>   4
Atom  19H    basis set group =>   4
Atom  20H    basis set group =>   4
Atom  21H    basis set group =>   4
---------------------------------
AUXILIARY/J BASIS SET INFORMATION
---------------------------------
There are 4 groups of distinct atoms

 Group   1 Type O   : 12s5p4d2f1g contracted to 6s4p3d1f1g pattern {711111/2111/211/2/1}
 Group   2 Type C   : 12s5p4d2f1g contracted to 6s4p3d1f1g pattern {711111/2111/211/2/1}
 Group   3 Type N   : 12s5p4d2f1g contracted to 6s4p3d1f1g pattern {711111/2111/211/2/1}
 Group   4 Type H   : 5s2p1d contracted to 3s1p1d pattern {311/2/1}

Atom   0O    basis set group =>   1
Atom   1C    basis set group =>   2
Atom   2C    basis set group =>   2
Atom   3C    basis set group =>   2
Atom   4C    basis set group =>   2
Atom   5C    basis set group =>   2
Atom   6N    basis set group =>   3
Atom   7H    basis set group =>   4
Atom   8H    basis set group =>   4
Atom   9H    basis set group =>   4
Atom  10C    basis set group =>   2
Atom  11C    basis set group =>   2
Atom  12C    basis set group =>   2
Atom  13O    basis set group =>   1
Atom  14H    basis set group =>   4
Atom  15H    basis set group =>   4
Atom  16H    basis set group =>   4
Atom  17H    basis set group =>   4
Atom  18H    basis set group =>   4
Atom  19H    basis set group =>   4
Atom  20H    basis set group =>   4
Atom  21H    basis set group =>   4
No protocol specified


           ************************************************************
           *        Program running with 16 parallel MPI-processes    *
           *              working on a common directory               *
           ************************************************************
------------------------------------------------------------------------------
                           ORCA GTO INTEGRAL CALCULATION
                           -- RI-GTO INTEGRALS CHOSEN --
------------------------------------------------------------------------------
------------------------------------------------------------------------------
                   ___                                                        
                  /   \      - P O W E R E D   B Y -                         
                 /     \                                                     
                 |  |  |   _    _      __       _____    __    __             
                 |  |  |  | |  | |    /  \     |  _  \  |  |  /  |          
                  \  \/   | |  | |   /    \    | | | |  |  | /  /          
                 / \  \   | |__| |  /  /\  \   | |_| |  |  |/  /          
                |  |  |   |  __  | /  /__\  \  |    /   |      \           
                |  |  |   | |  | | |   __   |  |    \   |  |\   \          
                \     /   | |  | | |  |  |  |  | |\  \  |  | \   \       
                 \___/    |_|  |_| |__|  |__|  |_| \__\ |__|  \__/        
                                                                              
                      - O R C A' S   B I G   F R I E N D -                    
                                      &                                       
                       - I N T E G R A L  F E E D E R -                       
                                                                              
 v1 FN, 2020, v2 2021                                                         
------------------------------------------------------------------------------


Reading SHARK input file 1_M0001.SHARKINP.tmp ... ok
----------------------
SHARK INTEGRAL PACKAGE
----------------------

Number of atoms                             ...     22
Number of basis functions                   ...    407
Number of shells                            ...    165
Maximum angular momentum                    ...      3
Integral batch strategy                     ... SHARK/LIBINT Hybrid
RI-J (if used) integral strategy            ... SPLIT-RIJ (Revised 2003 algorithm where possible)
Printlevel                                  ...      1
Contraction scheme used                     ... SEGMENTED contraction
Coulomb Range Separation                    ... NOT USED
Exchange Range Separation                   ... NOT USED
Finite Nucleus Model                        ... NOT USED
Auxiliary Coulomb fitting basis             ... AVAILABLE
   # of basis functions in Aux-J            ...    660
   # of shells in Aux-J                     ...    220
   Maximum angular momentum in Aux-J        ...      4
Auxiliary J/K fitting basis                 ... NOT available
Auxiliary Correlation fitting basis         ... NOT available
Auxiliary 'external' fitting basis          ... NOT available
Integral threshold                          ...     2.500000e-11
Primitive cut-off                           ...     2.500000e-12
Primitive pair pre-selection threshold      ...     2.500000e-12

Calculating pre-screening integrals         ... done (  0.1 sec) Dimension = 165
Organizing shell pair data                  ... done (  0.3 sec)
Shell pair information
Total number of shell pairs                 ...     13695
Shell pairs after pre-screening             ...     11672
Total number of primitive shell pairs       ...     41316
Primitive shell pairs kept                  ...     25421
          la=0 lb=0:   3223 shell pairs
          la=1 lb=0:   3353 shell pairs
          la=1 lb=1:    896 shell pairs
          la=2 lb=0:   1642 shell pairs
          la=2 lb=1:    857 shell pairs
          la=2 lb=2:    221 shell pairs
          la=3 lb=0:    792 shell pairs
          la=3 lb=1:    422 shell pairs
          la=3 lb=2:    208 shell pairs
          la=3 lb=3:     58 shell pairs

Calculating one electron integrals          ... done (  0.0 sec)
Calculating RI/J V-Matrix + Cholesky decomp.... done (  0.0 sec)
Calculating Nuclear repulsion               ... done (  0.0 sec) ENN=    596.256345168416 Eh

SHARK setup successfully completed in   0.7 seconds

Maximum memory used throughout the entire GTOINT-calculation: 24.5 MB
No protocol specified


           ************************************************************
           *        Program running with 16 parallel MPI-processes    *
           *              working on a common directory               *
           ************************************************************
-------------------------------------------------------------------------------
                                 ORCA SCF
-------------------------------------------------------------------------------

------------
SCF SETTINGS
------------
Hamiltonian:
 Density Functional     Method          .... DFT(GTOs)
 Exchange Functional    Exchange        .... PBE
   PBE kappa parameter   XKappa         ....  0.804000
   PBE mue parameter    XMuePBE         ....  0.219520
 Correlation Functional Correlation     .... PBE
   PBE beta parameter  CBetaPBE         ....  0.066725
 LDA part of GGA corr.  LDAOpt          .... PW91-LDA
 Gradients option       PostSCFGGA      .... off
   Density functional embedding theory  .... OFF
   NL short-range parameter             ....  6.400000
 RI-approximation to the Coulomb term is turned on
   Number of AuxJ basis functions       .... 660


General Settings:
 Integral files         IntName         .... 1_M0001
 Hartree-Fock type      HFTyp           .... RHF
 Total Charge           Charge          ....    0
 Multiplicity           Mult            ....    1
 Number of Electrons    NEL             ....   82
 Basis Dimension        Dim             ....  407
 Nuclear Repulsion      ENuc            ....    596.2563451684 Eh

Convergence Acceleration:
 DIIS                   CNVDIIS         .... on
   Start iteration      DIISMaxIt       ....    12
   Startup error        DIISStart       ....  0.200000
   # of expansion vecs  DIISMaxEq       ....     5
   Bias factor          DIISBfac        ....   1.050
   Max. coefficient     DIISMaxC        ....  10.000
 Trust-Rad. Augm. Hess. CNVTRAH         .... auto
   Auto Start mean grad. ratio tolernc. ....  1.125000
   Auto Start start iteration           ....    20
   Auto Start num. interpolation iter.  ....    10
   Max. Number of Micro iterations      ....    16
   Max. Number of Macro iterations      .... Maxiter - #DIIS iter
   Number of Davidson start vectors     ....     2
   Converg. threshold I  (grad. norm)   ....   1.000e-05
   Converg. threshold II (energy diff.) ....   1.000e-08
   Grad. Scal. Fac. for Micro threshold ....   0.100
   Minimum threshold for Micro iter.    ....   0.010
   NR start threshold (gradient norm)   ....   0.001
   Initial trust radius                 ....   0.400
   Minimum AH scaling param. (alpha)    ....   1.000
   Maximum AH scaling param. (alpha)    .... 1000.000
   Orbital update algorithm             .... Taylor
   White noise on init. David. guess    .... on
   Maximum white noise                  ....   0.010
   Quad. conv. algorithm                .... NR
 SOSCF                  CNVSOSCF        .... on
   Start iteration      SOSCFMaxIt      ....   150
   Startup grad/error   SOSCFStart      ....  0.003300
 Level Shifting         CNVShift        .... on
   Level shift para.    LevelShift      ....    0.2500
   Turn off err/grad.   ShiftErr        ....    0.0010
 Zerner damping         CNVZerner       .... off
 Static damping         CNVDamp         .... on
   Fraction old density DampFac         ....    0.7000
   Max. Damping (<1)    DampMax         ....    0.9800
   Min. Damping (>=0)   DampMin         ....    0.0000
   Turn off err/grad.   DampErr         ....    0.1000
 Fernandez-Rico         CNVRico         .... off

SCF Procedure:
 Maximum # iterations   MaxIter         ....   125
 SCF integral mode      SCFMode         .... Direct
   Integral package                     .... SHARK and LIBINT hybrid scheme
 Reset frequency        DirectResetFreq ....    20
 Integral Threshold     Thresh          ....  2.500e-11 Eh
 Primitive CutOff       TCut            ....  2.500e-12 Eh

Convergence Tolerance:
 Convergence Check Mode ConvCheckMode   .... Total+1el-Energy
 Convergence forced     ConvForced      .... 0
 Energy Change          TolE            ....  1.000e-08 Eh
 1-El. energy change                    ....  1.000e-05 Eh
 Orbital Gradient       TolG            ....  1.000e-05
 Orbital Rotation angle TolX            ....  1.000e-05
 DIIS Error             TolErr          ....  5.000e-07


Diagonalization of the overlap matrix:
Smallest eigenvalue                        ... 9.954e-06
Time for diagonalization                   ...    0.039 sec
Threshold for overlap eigenvalues          ... 1.000e-08
Number of eigenvalues below threshold      ... 0
Time for construction of square roots      ...    0.027 sec
Total time needed                          ...    0.068 sec

Time for model grid setup =    0.145 sec

------------------------------
INITIAL GUESS: MODEL POTENTIAL
------------------------------
Loading Hartree-Fock densities                     ... done
Calculating cut-offs                               ... done
Initializing the effective Hamiltonian             ... done
Setting up the integral package (SHARK)            ... done
Starting the Coulomb interaction                   ... done (   0.1 sec)
Reading the grid                                   ... done
Mapping shells                                     ... done
Starting the XC term evaluation                    ... done (   0.1 sec)
  promolecular density results
     # of electrons  =     81.995362120
     EX              =    -66.971910072
     EC              =     -2.725535039
     EX+EC           =    -69.697445112
Transforming the Hamiltonian                       ... done (   0.0 sec)
Diagonalizing the Hamiltonian                      ... done (   0.0 sec)
Back transforming the eigenvectors                 ... done (   0.0 sec)
Now organizing SCF variables                       ... done
                      ------------------
                      INITIAL GUESS DONE (   0.5 sec)
                      ------------------
-------------------
DFT GRID GENERATION
-------------------

General Integration Accuracy     IntAcc      ... 4.388
Radial Grid Type                 RadialGrid  ... OptM3 with GC (2021)
Angular Grid (max. ang.)         AngularGrid ... 4 (Lebedev-302)
Angular grid pruning method      GridPruning ... 4 (adaptive)
Weight generation scheme         WeightScheme... Becke
Basis function cutoff            BFCut       ... 1.0000e-11
Integration weight cutoff        WCut        ... 1.0000e-14
Angular grids for H and He will be reduced by one unit
Partially contracted basis set               ... off
Rotationally invariant grid construction     ... off

Total number of grid points                  ...   101281
Total number of batches                      ...     1596
Average number of points per batch           ...       63
Average number of grid points per atom       ...     4604
Time for grid setup =    0.765 sec


--------------------
CPCM SOLVATION MODEL
--------------------
CPCM parameters:
  Epsilon                                         ...      80.4000
  Refrac                                          ...       1.3300
  Rsolv                                           ...       1.3000
  Surface type                                    ... GAUSSIAN VDW
  Epsilon function type                           ...         CPCM
Radii:
 Radius for O  used is    3.4469 Bohr (=   1.8240 Ang.)
 Radius for C  used is    3.8550 Bohr (=   2.0400 Ang.)
 Radius for N  used is    3.5149 Bohr (=   1.8600 Ang.)
 Radius for H  used is    2.4944 Bohr (=   1.3200 Ang.)
Calculating surface                               ...        done! (  0.0s)
GEPOL surface points                              ...         1272
GEPOL Volume                                      ...    1296.7873
GEPOL Surface-area                                ...     725.7429
Calculating surface distance matrix               ...        done! (  0.0s)
Performing Cholesky decomposition & store         ...        done! (  0.1s)
Overall time for CPCM initialization              ...                 0.2s
--------------
SCF ITERATIONS
--------------
ITER       Energy         Delta-E        Max-DP      RMS-DP      [F,P]     Damp
               ***  Starting incremental Fock matrix formation  ***
  0   -515.8703582668   0.000000000000 2.17495345  0.01573283  0.3770448 0.7000
  1   -516.0353283443  -0.164970077504 1.51004408  0.01128875  0.1017338 0.7000
                               ***Turning on DIIS***
  2   -516.0860087757  -0.050680431390 0.42317410  0.00465299  0.0397398 0.0000
  3   -516.1799403842  -0.093931608552 1.43640940  0.01064602  0.0474378 0.0000
  4   -516.1977673267  -0.017826942477 0.19177630  0.00152590  0.0435545 0.0000
  5   -516.2008139078  -0.003046581105 0.11032424  0.00085865  0.0058821 0.0000
                      *** Initiating the SOSCF procedure ***
                           *** Shutting down DIIS ***
                      *** Re-Reading the Fockian *** 
                      *** Removing any level shift *** 
ITER      Energy       Delta-E        Grad      Rot      Max-DP    RMS-DP
  6   -516.20093501  -0.0001211004  0.000574  0.000574  0.034971  0.000288
               *** Restarting incremental Fock matrix formation ***
  7   -516.20094476  -0.0000097505  0.000187  0.001123  0.014105  0.000155
  8   -516.20094278   0.0000019767  0.000384  0.001277  0.010717  0.000087
  9   -516.20094792  -0.0000051424  0.000150  0.000946  0.010823  0.000095
 10   -516.20094735   0.0000005780  0.000109  0.000214  0.004976  0.000035
 11   -516.20094829  -0.0000009469  0.000042  0.000266  0.002279  0.000014
 12   -516.20094810   0.0000001887  0.000083  0.000217  0.001107  0.000007
 13   -516.20094838  -0.0000002740  0.000015  0.000140  0.001050  0.000011
 14   -516.20094838   0.0000000020  0.000027  0.000054  0.000127  0.000002
 15   -516.20094839  -0.0000000089  0.000004  0.000037  0.000511  0.000005
 16   -516.20094839  -0.0000000008  0.000004  0.000011  0.000406  0.000004
                  ***Gradient check signals convergence***
              ***Rediagonalizing the Fockian in SOSCF/NRSCF***

               *****************************************************
               *                     SUCCESS                       *
               *           SCF CONVERGED AFTER  17 CYCLES          *
               *****************************************************


----------------
TOTAL SCF ENERGY
----------------

Total Energy       :         -516.20094838 Eh          -14046.54192 eV

Components:
Nuclear Repulsion  :          596.25634517 Eh           16224.96001 eV
Electronic Energy  :        -1112.45729354 Eh          -30271.50193 eV
One Electron Energy:        -1885.50928236 Eh          -51307.31599 eV
Two Electron Energy:          773.05198882 Eh           21035.81406 eV
CPCM Dielectric    :           -0.14424654 Eh              -3.92515 eV

Virial components:
Potential Energy   :        -1029.93104787 Eh          -28025.84862 eV
Kinetic Energy     :          513.73009950 Eh           13979.30670 eV
Virial Ratio       :            2.00480962


DFT components:
N(Alpha)           :       41.000057000232 electrons
N(Beta)            :       41.000057000232 electrons
N(Total)           :       82.000114000463 electrons
E(X)               :      -68.241856704398 Eh       
E(C)               :       -2.734487089115 Eh       
E(XC)              :      -70.976343793513 Eh       
DFET-embed. en.    :        0.000000000000 Eh       
CPCM Solvation Model Properties:
Surface-charge          :           -0.02566018
Charge-correction       :           -0.00032230 Eh              -0.00877 eV
Free-energy (cav+disp)  :  This term is not implemented in the current solvation scheme

---------------
SCF CONVERGENCE
---------------

  Last Energy change         ...    1.0158e-08  Tolerance :   1.0000e-08
  Last MAX-Density change    ...    6.4102e-04  Tolerance :   1.0000e-07
  Last RMS-Density change    ...    5.8159e-06  Tolerance :   5.0000e-09
  Last Orbital Gradient      ...    1.5969e-06  Tolerance :   1.0000e-05
  Last Orbital Rotation      ...    1.8606e-05  Tolerance :   1.0000e-05

             **** THE GBW FILE WAS UPDATED (1_M0001.gbw) ****
             **** DENSITY 1_M0001.scfp WAS UPDATED ****
             **** ENERGY FILE WAS UPDATED (1_M0001.en.tmp) ****
             **** THE GBW FILE WAS UPDATED (1_M0001.gbw) ****
             **** DENSITY 1_M0001.scfp WAS UPDATED ****
----------------
ORBITAL ENERGIES
----------------

  NO   OCC          E(Eh)            E(eV) 
   0   2.0000     -18.763736      -510.5872 
   1   2.0000     -18.647900      -507.4351 
   2   2.0000     -14.096580      -383.5874 
   3   2.0000      -9.943218      -270.5687 
   4   2.0000      -9.917916      -269.8802 
   5   2.0000      -9.897952      -269.3370 
   6   2.0000      -9.895265      -269.2639 
   7   2.0000      -9.879323      -268.8300 
   8   2.0000      -9.873535      -268.6725 
   9   2.0000      -9.869536      -268.5637 
  10   2.0000      -9.865831      -268.4629 
  11   2.0000      -0.967830       -26.3360 
  12   2.0000      -0.926345       -25.2071 
  13   2.0000      -0.782112       -21.2824 
  14   2.0000      -0.749859       -20.4047 
  15   2.0000      -0.703294       -19.1376 
  16   2.0000      -0.655480       -17.8365 
  17   2.0000      -0.640200       -17.4207 
  18   2.0000      -0.584608       -15.9080 
  19   2.0000      -0.543358       -14.7855 
  20   2.0000      -0.533021       -14.5043 
  21   2.0000      -0.525173       -14.2907 
  22   2.0000      -0.506356       -13.7786 
  23   2.0000      -0.473263       -12.8782 
  24   2.0000      -0.454776       -12.3751 
  25   2.0000      -0.413296       -11.2464 
  26   2.0000      -0.402667       -10.9571 
  27   2.0000      -0.383742       -10.4422 
  28   2.0000      -0.368398       -10.0246 
  29   2.0000      -0.366371        -9.9695 
  30   2.0000      -0.352195        -9.5837 
  31   2.0000      -0.332368        -9.0442 
  32   2.0000      -0.325803        -8.8656 
  33   2.0000      -0.303508        -8.2589 
  34   2.0000      -0.291382        -7.9289 
  35   2.0000      -0.284366        -7.7380 
  36   2.0000      -0.262103        -7.1322 
  37   2.0000      -0.230179        -6.2635 
  38   2.0000      -0.198668        -5.4060 
  39   2.0000      -0.147646        -4.0177 
  40   2.0000      -0.136152        -3.7049 
  41   0.0000      -0.029273        -0.7966 
  42   0.0000      -0.004265        -0.1161 
  43   0.0000       0.000387         0.0105 
  44   0.0000       0.032251         0.8776 
  45   0.0000       0.037369         1.0169 
  46   0.0000       0.042714         1.1623 
  47   0.0000       0.055442         1.5087 
  48   0.0000       0.060889         1.6569 
  49   0.0000       0.074323         2.0224 
  50   0.0000       0.077006         2.0954 
  51   0.0000       0.095943         2.6107 
  52   0.0000       0.098519         2.6809 
  53   0.0000       0.110119         2.9965 
  54   0.0000       0.121436         3.3044 
  55   0.0000       0.125621         3.4183 
  56   0.0000       0.129258         3.5173 
  57   0.0000       0.144474         3.9313 
  58   0.0000       0.153180         4.1682 
  59   0.0000       0.169974         4.6252 
  60   0.0000       0.176790         4.8107 
  61   0.0000       0.192475         5.2375 
  62   0.0000       0.199561         5.4303 
  63   0.0000       0.205812         5.6004 
  64   0.0000       0.213682         5.8146 
  65   0.0000       0.222644         6.0584 
  66   0.0000       0.229768         6.2523 
  67   0.0000       0.231793         6.3074 
  68   0.0000       0.243264         6.6195 
  69   0.0000       0.245311         6.6753 
  70   0.0000       0.262082         7.1316 
  71   0.0000       0.272252         7.4084 
  72   0.0000       0.287903         7.8342 
  73   0.0000       0.291054         7.9200 
  74   0.0000       0.297985         8.1086 
  75   0.0000       0.307878         8.3778 
  76   0.0000       0.312536         8.5045 
  77   0.0000       0.316258         8.6058 
  78   0.0000       0.327171         8.9028 
  79   0.0000       0.338490         9.2108 
  80   0.0000       0.348347         9.4790 
  81   0.0000       0.353988         9.6325 
  82   0.0000       0.369398        10.0518 
  83   0.0000       0.380324        10.3491 
  84   0.0000       0.380766        10.3612 
  85   0.0000       0.387535        10.5454 
  86   0.0000       0.393613        10.7108 
  87   0.0000       0.398102        10.8329 
  88   0.0000       0.400022        10.8852 
  89   0.0000       0.411141        11.1877 
  90   0.0000       0.414806        11.2874 
  91   0.0000       0.424614        11.5543 
  92   0.0000       0.430136        11.7046 
  93   0.0000       0.437307        11.8997 
  94   0.0000       0.443919        12.0797 
  95   0.0000       0.448935        12.2161 
  96   0.0000       0.458011        12.4631 
  97   0.0000       0.468717        12.7544 
  98   0.0000       0.482470        13.1287 
  99   0.0000       0.497919        13.5491 
 100   0.0000       0.500994        13.6327 
 101   0.0000       0.510871        13.9015 
 102   0.0000       0.523277        14.2391 
 103   0.0000       0.531937        14.4747 
 104   0.0000       0.552180        15.0256 
 105   0.0000       0.564055        15.3487 
 106   0.0000       0.569565        15.4987 
 107   0.0000       0.582144        15.8409 
 108   0.0000       0.594828        16.1861 
 109   0.0000       0.599107        16.3025 
 110   0.0000       0.610678        16.6174 
 111   0.0000       0.623230        16.9590 
 112   0.0000       0.642029        17.4705 
 113   0.0000       0.650764        17.7082 
 114   0.0000       0.664000        18.0684 
 115   0.0000       0.666427        18.1344 
 116   0.0000       0.684625        18.6296 
 117   0.0000       0.717978        19.5372 
 118   0.0000       0.721285        19.6272 
 119   0.0000       0.728612        19.8265 
 120   0.0000       0.748869        20.3778 
 121   0.0000       0.750276        20.4161 
 122   0.0000       0.770396        20.9635 
 123   0.0000       0.783159        21.3108 
 124   0.0000       0.794002        21.6059 
 125   0.0000       0.812091        22.0981 
 126   0.0000       0.819453        22.2984 
 127   0.0000       0.833665        22.6852 
 128   0.0000       0.844488        22.9797 
 129   0.0000       0.851529        23.1713 
 130   0.0000       0.882211        24.0062 
 131   0.0000       0.887932        24.1619 
 132   0.0000       0.907870        24.7044 
 133   0.0000       0.926306        25.2061 
 134   0.0000       0.955906        26.0115 
 135   0.0000       0.972951        26.4754 
 136   0.0000       0.999191        27.1894 
 137   0.0000       1.008511        27.4430 
 138   0.0000       1.038404        28.2564 
 139   0.0000       1.045334        28.4450 
 140   0.0000       1.047399        28.5012 
 141   0.0000       1.056708        28.7545 
 142   0.0000       1.087769        29.5997 
 143   0.0000       1.106628        30.1129 
 144   0.0000       1.108378        30.1605 
 145   0.0000       1.122596        30.5474 
 146   0.0000       1.143453        31.1149 
 147   0.0000       1.156264        31.4635 
 148   0.0000       1.166610        31.7451 
 149   0.0000       1.183896        32.2154 
 150   0.0000       1.200489        32.6670 
 151   0.0000       1.207579        32.8599 
 152   0.0000       1.228628        33.4327 
 153   0.0000       1.246779        33.9266 
 154   0.0000       1.269224        34.5373 
 155   0.0000       1.273602        34.6565 
 156   0.0000       1.284425        34.9510 
 157   0.0000       1.300832        35.3974 
 158   0.0000       1.305479        35.5239 
 159   0.0000       1.324314        36.0364 
 160   0.0000       1.342894        36.5420 
 161   0.0000       1.352622        36.8067 
 162   0.0000       1.379963        37.5507 
 163   0.0000       1.395860        37.9833 
 164   0.0000       1.423287        38.7296 
 165   0.0000       1.429658        38.9030 
 166   0.0000       1.453807        39.5601 
 167   0.0000       1.472503        40.0689 
 168   0.0000       1.476565        40.1794 
 169   0.0000       1.488995        40.5176 
 170   0.0000       1.498065        40.7644 
 171   0.0000       1.508531        41.0492 
 172   0.0000       1.522783        41.4370 
 173   0.0000       1.543679        42.0056 
 174   0.0000       1.559102        42.4253 
 175   0.0000       1.565622        42.6027 
 176   0.0000       1.581178        43.0260 
 177   0.0000       1.589706        43.2581 
 178   0.0000       1.611013        43.8379 
 179   0.0000       1.624460        44.2038 
 180   0.0000       1.632451        44.4213 
 181   0.0000       1.647479        44.8302 
 182   0.0000       1.670797        45.4647 
 183   0.0000       1.682765        45.7904 
 184   0.0000       1.698090        46.2074 
 185   0.0000       1.703010        46.3413 
 186   0.0000       1.729441        47.0605 
 187   0.0000       1.731889        47.1271 
 188   0.0000       1.753252        47.7084 
 189   0.0000       1.760574        47.9076 
 190   0.0000       1.776001        48.3275 
 191   0.0000       1.787820        48.6490 
 192   0.0000       1.790965        48.7346 
 193   0.0000       1.807097        49.1736 
 194   0.0000       1.819931        49.5228 
 195   0.0000       1.836952        49.9860 
 196   0.0000       1.838997        50.0416 
 197   0.0000       1.861069        50.6423 
 198   0.0000       1.890384        51.4400 
 199   0.0000       1.898674        51.6655 
 200   0.0000       1.914750        52.1030 
 201   0.0000       1.923574        52.3431 
 202   0.0000       1.947081        52.9828 
 203   0.0000       1.951995        53.1165 
 204   0.0000       1.982355        53.9426 
 205   0.0000       1.993836        54.2550 
 206   0.0000       2.024778        55.0970 
 207   0.0000       2.055144        55.9233 
 208   0.0000       2.068560        56.2884 
 209   0.0000       2.085539        56.7504 
 210   0.0000       2.093797        56.9751 
 211   0.0000       2.110225        57.4221 
 212   0.0000       2.120395        57.6989 
 213   0.0000       2.126541        57.8661 
 214   0.0000       2.155180        58.6454 
 215   0.0000       2.164236        58.8919 
 216   0.0000       2.165605        58.9291 
 217   0.0000       2.204490        59.9872 
 218   0.0000       2.219980        60.4087 
 219   0.0000       2.262699        61.5712 
 220   0.0000       2.305554        62.7373 
 221   0.0000       2.321538        63.1722 
 222   0.0000       2.336427        63.5774 
 223   0.0000       2.340297        63.6827 
 224   0.0000       2.366852        64.4053 
 225   0.0000       2.368947        64.4623 
 226   0.0000       2.381047        64.7916 
 227   0.0000       2.401386        65.3450 
 228   0.0000       2.416758        65.7633 
 229   0.0000       2.433388        66.2159 
 230   0.0000       2.441247        66.4297 
 231   0.0000       2.454627        66.7938 
 232   0.0000       2.464237        67.0553 
 233   0.0000       2.488808        67.7239 
 234   0.0000       2.497268        67.9541 
 235   0.0000       2.520771        68.5937 
 236   0.0000       2.544788        69.2472 
 237   0.0000       2.546903        69.3047 
 238   0.0000       2.553147        69.4747 
 239   0.0000       2.570103        69.9361 
 240   0.0000       2.574146        70.0461 
 241   0.0000       2.589147        70.4543 
 242   0.0000       2.597357        70.6777 
 243   0.0000       2.608294        70.9753 
 244   0.0000       2.618375        71.2496 
 245   0.0000       2.643604        71.9361 
 246   0.0000       2.663338        72.4731 
 247   0.0000       2.673054        72.7375 
 248   0.0000       2.695903        73.3592 
 249   0.0000       2.712523        73.8115 
 250   0.0000       2.725506        74.1648 
 251   0.0000       2.733097        74.3714 
 252   0.0000       2.745146        74.6992 
 253   0.0000       2.757049        75.0231 
 254   0.0000       2.770806        75.3975 
 255   0.0000       2.786593        75.8270 
 256   0.0000       2.797452        76.1225 
 257   0.0000       2.808819        76.4319 
 258   0.0000       2.816919        76.6523 
 259   0.0000       2.835874        77.1681 
 260   0.0000       2.837682        77.2172 
 261   0.0000       2.860469        77.8373 
 262   0.0000       2.884901        78.5021 
 263   0.0000       2.892246        78.7020 
 264   0.0000       2.914727        79.3138 
 265   0.0000       2.927964        79.6739 
 266   0.0000       2.954173        80.3871 
 267   0.0000       2.960367        80.5557 
 268   0.0000       2.991116        81.3924 
 269   0.0000       2.993613        81.4603 
 270   0.0000       3.014350        82.0246 
 271   0.0000       3.018959        82.1501 
 272   0.0000       3.033465        82.5448 
 273   0.0000       3.043172        82.8089 
 274   0.0000       3.053904        83.1010 
 275   0.0000       3.062836        83.3440 
 276   0.0000       3.088990        84.0557 
 277   0.0000       3.102540        84.4244 
 278   0.0000       3.117976        84.8444 
 279   0.0000       3.128544        85.1320 
 280   0.0000       3.138604        85.4057 
 281   0.0000       3.141907        85.4956 
 282   0.0000       3.159848        85.9838 
 283   0.0000       3.173487        86.3550 
 284   0.0000       3.179653        86.5228 
 285   0.0000       3.201401        87.1145 
 286   0.0000       3.219106        87.5963 
 287   0.0000       3.237836        88.1060 
 288   0.0000       3.243976        88.2731 
 289   0.0000       3.246542        88.3429 
 290   0.0000       3.263332        88.7998 
 291   0.0000       3.277751        89.1921 
 292   0.0000       3.298654        89.7609 
 293   0.0000       3.300273        89.8050 
 294   0.0000       3.318560        90.3026 
 295   0.0000       3.338786        90.8530 
 296   0.0000       3.354232        91.2733 
 297   0.0000       3.355610        91.3108 
 298   0.0000       3.392430        92.3127 
 299   0.0000       3.401056        92.5474 
 300   0.0000       3.410657        92.8087 
 301   0.0000       3.417485        92.9945 
 302   0.0000       3.440387        93.6177 
 303   0.0000       3.451655        93.9243 
 304   0.0000       3.460586        94.1673 
 305   0.0000       3.479205        94.6740 
 306   0.0000       3.506213        95.4089 
 307   0.0000       3.523312        95.8742 
 308   0.0000       3.568882        97.1142 
 309   0.0000       3.587111        97.6102 
 310   0.0000       3.605461        98.1096 
 311   0.0000       3.634625        98.9032 
 312   0.0000       3.653133        99.4068 
 313   0.0000       3.693836       100.5144 
 314   0.0000       3.714856       101.0864 
 315   0.0000       3.735686       101.6532 
 316   0.0000       3.745861       101.9300 
 317   0.0000       3.758992       102.2874 
 318   0.0000       3.774725       102.7155 
 319   0.0000       3.806492       103.5799 
 320   0.0000       3.818037       103.8941 
 321   0.0000       3.859284       105.0165 
 322   0.0000       3.876128       105.4748 
 323   0.0000       3.901444       106.1637 
 324   0.0000       3.941555       107.2552 
 325   0.0000       3.962283       107.8192 
 326   0.0000       3.977161       108.2241 
 327   0.0000       4.005447       108.9938 
 328   0.0000       4.024350       109.5081 
 329   0.0000       4.044621       110.0597 
 330   0.0000       4.058203       110.4293 
 331   0.0000       4.100309       111.5751 
 332   0.0000       4.136975       112.5728 
 333   0.0000       4.163220       113.2870 
 334   0.0000       4.172916       113.5508 
 335   0.0000       4.204868       114.4203 
 336   0.0000       4.217415       114.7617 
 337   0.0000       4.223785       114.9350 
 338   0.0000       4.247594       115.5829 
 339   0.0000       4.281540       116.5066 
 340   0.0000       4.309339       117.2631 
 341   0.0000       4.315100       117.4198 
 342   0.0000       4.360617       118.6584 
 343   0.0000       4.380895       119.2102 
 344   0.0000       4.455074       121.2287 
 345   0.0000       4.480101       121.9098 
 346   0.0000       4.521880       123.0466 
 347   0.0000       4.570503       124.3697 
 348   0.0000       4.594237       125.0155 
 349   0.0000       4.622113       125.7741 
 350   0.0000       4.663437       126.8986 
 351   0.0000       4.690304       127.6297 
 352   0.0000       4.708886       128.1353 
 353   0.0000       4.721839       128.4878 
 354   0.0000       4.742641       129.0538 
 355   0.0000       4.765704       129.6814 
 356   0.0000       4.779960       130.0693 
 357   0.0000       4.846908       131.8911 
 358   0.0000       4.883665       132.8913 
 359   0.0000       4.911661       133.6531 
 360   0.0000       4.921742       133.9274 
 361   0.0000       4.966466       135.1444 
 362   0.0000       5.013095       136.4133 
 363   0.0000       5.017643       136.5370 
 364   0.0000       5.077484       138.1654 
 365   0.0000       5.134422       139.7147 
 366   0.0000       5.148912       140.1090 
 367   0.0000       5.154605       140.2639 
 368   0.0000       5.184942       141.0894 
 369   0.0000       5.249399       142.8434 
 370   0.0000       5.255966       143.0221 
 371   0.0000       5.273157       143.4899 
 372   0.0000       5.300505       144.2341 
 373   0.0000       5.334616       145.1623 
 374   0.0000       5.376827       146.3109 
 375   0.0000       5.430427       147.7694 
 376   0.0000       5.467541       148.7794 
 377   0.0000       5.518193       150.1577 
 378   0.0000       5.560194       151.3006 
 379   0.0000       5.702869       155.1830 
 380   0.0000       5.768208       156.9609 
 381   0.0000       5.823876       158.4757 
 382   0.0000       5.884681       160.1303 
 383   0.0000       6.055661       164.7829 
 384   0.0000       6.255200       170.2127 
 385   0.0000       6.307515       171.6362 
 386   0.0000       6.332083       172.3047 
 387   0.0000       6.362465       173.1315 
 388   0.0000       6.439739       175.2342 
 389   0.0000       6.561097       178.5365 
 390   0.0000       6.658039       181.1744 
 391   0.0000       6.672366       181.5643 
 392   0.0000       6.819022       185.5550 
 393   0.0000       6.911973       188.0843 
 394   0.0000       6.953509       189.2146 
 395   0.0000       7.222736       196.5406 
 396   0.0000      21.855228       594.7110 
 397   0.0000      22.076382       600.7289 
 398   0.0000      22.225205       604.7786 
 399   0.0000      22.302380       606.8786 
 400   0.0000      22.354393       608.2940 
 401   0.0000      22.578306       614.3869 
 402   0.0000      22.795671       620.3017 
 403   0.0000      23.125923       629.2883 
 404   0.0000      31.549402       858.5029 
 405   0.0000      43.431523      1181.8318 
 406   0.0000      43.665088      1188.1875 

                    ********************************
                    * MULLIKEN POPULATION ANALYSIS *
                    ********************************

-----------------------
MULLIKEN ATOMIC CHARGES
-----------------------
   0 O :   -0.385414
   1 C :    0.206016
   2 C :   -0.345710
   3 C :    0.090833
   4 C :   -0.220322
   5 C :   -0.169174
   6 N :   -0.220524
   7 H :    0.327794
   8 H :    0.321590
   9 H :    0.323048
  10 C :   -0.268946
  11 C :   -0.205246
  12 C :    0.035569
  13 O :   -0.783460
  14 H :    0.346729
  15 H :    0.125958
  16 H :    0.144831
  17 H :    0.138620
  18 H :    0.166045
  19 H :    0.170793
  20 H :    0.113615
  21 H :    0.087355
Sum of atomic charges:    0.0000000

--------------------------------
MULLIKEN REDUCED ORBITAL CHARGES
--------------------------------
  0 O s       :     3.716797  s :     3.716797
      pz      :     1.800300  p :     4.635271
      px      :     1.611157
      py      :     1.223814
      dz2     :     0.004126  d :     0.031529
      dxz     :     0.004076
      dyz     :     0.004210
      dx2y2   :     0.005687
      dxy     :     0.013430
      f0      :     0.000245  f :     0.001817
      f+1     :     0.000178
      f-1     :     0.000422
      f+2     :     0.000069
      f-2     :     0.000153
      f+3     :     0.000524
      f-3     :     0.000225
  1 C s       :     2.948016  s :     2.948016
      pz      :     1.002840  p :     2.676732
      px      :     0.902016
      py      :     0.771876
      dz2     :     0.008242  d :     0.154255
      dxz     :     0.023759
      dyz     :     0.039984
      dx2y2   :     0.036881
      dxy     :     0.045389
      f0      :     0.001991  f :     0.014981
      f+1     :     0.001073
      f-1     :     0.001073
      f+2     :     0.001089
      f-2     :     0.002483
      f+3     :     0.001867
      f-3     :     0.005404
  2 C s       :     3.299845  s :     3.299845
      pz      :     1.045025  p :     2.958642
      px      :     0.952366
      py      :     0.961251
      dz2     :     0.007869  d :     0.080605
      dxz     :     0.019133
      dyz     :     0.007662
      dx2y2   :     0.026761
      dxy     :     0.019181
      f0      :     0.001164  f :     0.006619
      f+1     :     0.000768
      f-1     :     0.000517
      f+2     :     0.000710
      f-2     :     0.000688
      f+3     :     0.000934
      f-3     :     0.001838
  3 C s       :     3.165678  s :     3.165678
      pz      :     0.980944  p :     2.605246
      px      :     0.790456
      py      :     0.833846
      dz2     :     0.006502  d :     0.129119
      dxz     :     0.020695
      dyz     :     0.026647
      dx2y2   :     0.041462
      dxy     :     0.033813
      f0      :     0.001329  f :     0.009124
      f+1     :     0.000778
      f-1     :     0.000540
      f+2     :     0.000859
      f-2     :     0.001302
      f+3     :     0.001159
      f-3     :     0.003157
  4 C s       :     3.204504  s :     3.204504
      pz      :     0.949857  p :     2.923362
      px      :     0.903283
      py      :     1.070222
      dz2     :     0.011760  d :     0.087182
      dxz     :     0.026497
      dyz     :     0.015967
      dx2y2   :     0.015964
      dxy     :     0.016994
      f0      :     0.000934  f :     0.005274
      f+1     :     0.000841
      f-1     :     0.000544
      f+2     :     0.001275
      f-2     :     0.000336
      f+3     :     0.000516
      f-3     :     0.000828
  5 C s       :     3.222994  s :     3.222994
      pz      :     0.863074  p :     2.837933
      px      :     1.073956
      py      :     0.900904
      dz2     :     0.024877  d :     0.100983
      dxz     :     0.013936
      dyz     :     0.029619
      dx2y2   :     0.024063
      dxy     :     0.008488
      f0      :     0.001258  f :     0.007263
      f+1     :     0.000566
      f-1     :     0.001496
      f+2     :     0.001599
      f-2     :     0.001315
      f+3     :     0.000641
      f-3     :     0.000387
  6 N s       :     3.412867  s :     3.412867
      pz      :     1.242850  p :     3.761712
      px      :     1.279273
      py      :     1.239588
      dz2     :     0.012289  d :     0.044017
      dxz     :     0.010431
      dyz     :     0.004418
      dx2y2   :     0.011389
      dxy     :     0.005490
      f0      :     0.000193  f :     0.001928
      f+1     :     0.000223
      f-1     :     0.000324
      f+2     :     0.000552
      f-2     :     0.000260
      f+3     :     0.000298
      f-3     :     0.000078
  7 H s       :     0.638385  s :     0.638385
      pz      :     0.016407  p :     0.033822
      px      :     0.010644
      py      :     0.006770
  8 H s       :     0.643664  s :     0.643664
      pz      :     0.008236  p :     0.034746
      px      :     0.019912
      py      :     0.006598
  9 H s       :     0.642950  s :     0.642950
[...]
      f-3     :     0.000184
  7 H s       :     0.636896  s :     0.636896
      pz      :     0.019812  p :     0.032703
      px      :     0.006378
      py      :     0.006513
  8 H s       :     0.647881  s :     0.647881
      pz      :     0.008817  p :     0.034951
      px      :     0.019927
      py      :     0.006207
  9 H s       :     0.641387  s :     0.641387
      pz      :     0.006342  p :     0.032626
      px      :     0.007994
      py      :     0.018291
 10 C s       :     3.249024  s :     3.249024
      pz      :     1.026409  p :     2.914315
      px      :     0.946025
      py      :     0.941881
      dz2     :     0.006190  d :     0.091629
      dxz     :     0.020818
      dyz     :     0.011020
      dx2y2   :     0.018110
      dxy     :     0.035490
      f0      :     0.001182  f :     0.006815
      f+1     :     0.000735
      f-1     :     0.000600
      f+2     :     0.001003
      f-2     :     0.000461
      f+3     :     0.000852
      f-3     :     0.001982
 11 C s       :     3.297068  s :     3.297068
      pz      :     1.088139  p :     2.908842
      px      :     0.904427
      py      :     0.916276
      dz2     :     0.005165  d :     0.075171
      dxz     :     0.017730
      dyz     :     0.008052
      dx2y2   :     0.018121
      dxy     :     0.026104
      f0      :     0.001221  f :     0.006589
      f+1     :     0.000728
      f-1     :     0.000553
      f+2     :     0.000681
      f-2     :     0.000643
      f+3     :     0.000964
      f-3     :     0.001800
 12 C s       :     3.017738  s :     3.017738
      pz      :     0.929015  p :     2.604017
      px      :     0.842753
      py      :     0.832249
      dz2     :     0.011805  d :     0.172329
      dxz     :     0.048353
      dyz     :     0.018531
      dx2y2   :     0.032081
      dxy     :     0.061559
      f0      :     0.001861  f :     0.015246
      f+1     :     0.001463
      f-1     :     0.000615
      f+2     :     0.002174
      f-2     :     0.001171
      f+3     :     0.002202
      f-3     :     0.005761
 13 O s       :     3.798850  s :     3.798850
      pz      :     1.643249  p :     4.794583
      px      :     1.368773
      py      :     1.782561
      dz2     :     0.002974  d :     0.026065
      dxz     :     0.007647
      dyz     :     0.000336
      dx2y2   :     0.008980
      dxy     :     0.006128
      f0      :     0.000148  f :     0.001378
      f+1     :     0.000225
      f-1     :     0.000024
      f+2     :     0.000267
      f-2     :     0.000028
      f+3     :     0.000349
      f-3     :     0.000336
 14 H s       :     0.648398  s :     0.648398
      pz      :     0.013723  p :     0.050134
      px      :     0.018423
      py      :     0.017989
 15 H s       :     0.866924  s :     0.866924
      pz      :     0.005394  p :     0.021464
      px      :     0.005245
      py      :     0.010825
 16 H s       :     0.842409  s :     0.842409
      pz      :     0.005150  p :     0.020950
      px      :     0.005739
      py      :     0.010060
 17 H s       :     0.844917  s :     0.844917
      pz      :     0.006274  p :     0.021285
      px      :     0.006817
      py      :     0.008194
 18 H s       :     0.816292  s :     0.816292
      pz      :     0.004731  p :     0.021038
      px      :     0.012574
      py      :     0.003733
 19 H s       :     0.815068  s :     0.815068
      pz      :     0.004999  p :     0.020951
      px      :     0.004637
      py      :     0.011314
 20 H s       :     0.869608  s :     0.869608
      pz      :     0.005373  p :     0.021626
      px      :     0.006456
      py      :     0.009797
 21 H s       :     0.897773  s :     0.897773
      pz      :     0.005802  p :     0.021889
      px      :     0.005218
      py      :     0.010869


                     *******************************
                     * LOEWDIN POPULATION ANALYSIS *
                     *******************************

----------------------
LOEWDIN ATOMIC CHARGES
----------------------
   0 O :    0.025502
   1 C :   -0.303448
   2 C :   -0.168533
   3 C :   -0.215799
   4 C :   -0.235923
   5 C :   -0.244084
   6 N :    0.187208
   7 H :    0.225405
   8 H :    0.219200
   9 H :    0.226206
  10 C :   -0.176375
  11 C :   -0.191101
  12 C :   -0.410419
  13 O :   -0.175360
  14 H :    0.189435
  15 H :    0.149538
  16 H :    0.154515
  17 H :    0.160882
  18 H :    0.148570
  19 H :    0.151111
  20 H :    0.146659
  21 H :    0.136810

-------------------------------
LOEWDIN REDUCED ORBITAL CHARGES
-------------------------------
  0 O s       :     3.359878  s :     3.359878
      pz      :     1.684488  p :     4.538401
      px      :     1.312332
      py      :     1.541581
      dz2     :     0.007517  d :     0.071268
      dxz     :     0.007392
      dyz     :     0.009784
      dx2y2   :     0.021486
      dxy     :     0.025088
      f0      :     0.000474  f :     0.004951
      f+1     :     0.000507
      f-1     :     0.000394
      f+2     :     0.000064
      f-2     :     0.000694
      f+3     :     0.000883
      f-3     :     0.001933
  1 C s       :     2.732796  s :     2.732796
      pz      :     0.908447  p :     2.815374
      px      :     0.993466
      py      :     0.913461
      dz2     :     0.052830  d :     0.663661
      dxz     :     0.112007
      dyz     :     0.099890
      dx2y2   :     0.190761
      dxy     :     0.208172
      f0      :     0.006501  f :     0.091618
      f+1     :     0.006547
      f-1     :     0.007379
      f+2     :     0.006755
      f-2     :     0.016768
      f+3     :     0.018524
      f-3     :     0.029144
  2 C s       :     2.766411  s :     2.766411
      pz      :     0.968058  p :     2.986120
      px      :     1.027845
      py      :     0.990217
      dz2     :     0.028154  d :     0.374977
      dxz     :     0.074592
      dyz     :     0.029223
      dx2y2   :     0.122951
      dxy     :     0.120057
      f0      :     0.002835  f :     0.041024
      f+1     :     0.004313
      f-1     :     0.003165
      f+2     :     0.005751
      f-2     :     0.004671
      f+3     :     0.007755
      f-3     :     0.012534
  3 C s       :     2.714088  s :     2.714088
      pz      :     0.913231  p :     2.923479
      px      :     0.963949
      py      :     1.046299
      dz2     :     0.037527  d :     0.522374
      dxz     :     0.066508
      dyz     :     0.093037
      dx2y2   :     0.170370
      dxy     :     0.154932
      f0      :     0.003802  f :     0.055858
      f+1     :     0.004728
      f-1     :     0.004429
      f+2     :     0.005157
      f-2     :     0.008658
      f+3     :     0.008737
      f-3     :     0.020347
  4 C s       :     2.774124  s :     2.774124
      pz      :     1.000468  p :     3.038485
      px      :     1.008036
      py      :     1.029981
      dz2     :     0.085851  d :     0.385386
      dxz     :     0.106273
      dyz     :     0.061898
      dx2y2   :     0.053657
      dxy     :     0.077708
      f0      :     0.007416  f :     0.037928
      f+1     :     0.007431
      f-1     :     0.005135
      f+2     :     0.004540
      f-2     :     0.004481
      f+3     :     0.004516
      f-3     :     0.004409
  5 C s       :     2.811764  s :     2.811764
      pz      :     1.001086  p :     2.965075
      px      :     1.005006
      py      :     0.958983
      dz2     :     0.093305  d :     0.419531
      dxz     :     0.085468
      dyz     :     0.108760
      dx2y2   :     0.084985
      dxy     :     0.047014
      f0      :     0.006376  f :     0.047714
      f+1     :     0.007967
      f-1     :     0.009056
      f+2     :     0.006047
      f-2     :     0.009293
      f+3     :     0.005041
      f-3     :     0.003933
  6 N s       :     2.984028  s :     2.984028
      pz      :     1.212796  p :     3.668296
      px      :     1.231823
      py      :     1.223678
      dz2     :     0.048754  d :     0.151157
      dxz     :     0.016316
      dyz     :     0.016384
      dx2y2   :     0.047924
      dxy     :     0.021780
      f0      :     0.001099  f :     0.009312
      f+1     :     0.000750
      f-1     :     0.001631
      f+2     :     0.001993
      f-2     :     0.001205
      f+3     :     0.001753
      f-3     :     0.000880
  7 H s       :     0.674631  s :     0.674631
      pz      :     0.062225  p :     0.099964
      px      :     0.018332
      py      :     0.019408
  8 H s       :     0.677010  s :     0.677010
      pz      :     0.025103  p :     0.103790
      px      :     0.061323
      py      :     0.017364
  9 H s       :     0.674433  s :     0.674433
      pz      :     0.018460  p :     0.099361
      px      :     0.024769
      py      :     0.056132
 10 C s       :     2.766148  s :     2.766148
      pz      :     0.939748  p :     2.971094
      px      :     1.030481
      py      :     1.000866
      dz2     :     0.030727  d :     0.397719
      dxz     :     0.072388
      dyz     :     0.037582
      dx2y2   :     0.107699
      dxy     :     0.149322
      f0      :     0.002787  f :     0.041414
      f+1     :     0.003994
      f-1     :     0.003517
      f+2     :     0.007249
      f-2     :     0.002973
      f+3     :     0.007696
      f-3     :     0.013197
 11 C s       :     2.778886  s :     2.778886
      pz      :     0.976222  p :     3.009677
      px      :     1.043494
      py      :     0.989961
      dz2     :     0.027706  d :     0.363115
      dxz     :     0.066229
      dyz     :     0.025260
      dx2y2   :     0.113146
      dxy     :     0.130774
      f0      :     0.002980  f :     0.039424
      f+1     :     0.004343
      f-1     :     0.003122
      f+2     :     0.004962
      f-2     :     0.004010
      f+3     :     0.007753
      f-3     :     0.012253
 12 C s       :     2.731848  s :     2.731848
      pz      :     0.859988  p :     2.822718
      px      :     0.928432
      py      :     1.034297
      dz2     :     0.056480  d :     0.756492
      dxz     :     0.166346
      dyz     :     0.066501
      dx2y2   :     0.205371
      dxy     :     0.261796
      f0      :     0.005981  f :     0.099361
      f+1     :     0.010222
      f-1     :     0.004368
      f+2     :     0.017793
      f-2     :     0.007519
      f+3     :     0.016641
      f-3     :     0.036836
 13 O s       :     3.445766  s :     3.445766
      pz      :     1.556930  p :     4.663662
      px      :     1.455567
      py      :     1.651166
      dz2     :     0.006852  d :     0.061262
      dxz     :     0.015848
      dyz     :     0.000623
      dx2y2   :     0.020744
      dxy     :     0.017194
      f0      :     0.000429  f :     0.004670
      f+1     :     0.000736
      f-1     :     0.000076
      f+2     :     0.000793
      f-2     :     0.000101
      f+3     :     0.001158
      f-3     :     0.001376
 14 H s       :     0.647866  s :     0.647866
      pz      :     0.036843  p :     0.162699
      px      :     0.067067
      py      :     0.058788
 15 H s       :     0.790272  s :     0.790272
      pz      :     0.015601  p :     0.060190
      px      :     0.014817
      py      :     0.029771
 16 H s       :     0.786858  s :     0.786858
      pz      :     0.014196  p :     0.058627
      px      :     0.014792
      py      :     0.029639
 17 H s       :     0.780526  s :     0.780526
      pz      :     0.016601  p :     0.058592
      px      :     0.017692
      py      :     0.024299
 18 H s       :     0.790152  s :     0.790152
      pz      :     0.013319  p :     0.061277
      px      :     0.036390
      py      :     0.011569
 19 H s       :     0.787802  s :     0.787802
      pz      :     0.014257  p :     0.061087
      px      :     0.014624
      py      :     0.032205
 20 H s       :     0.794464  s :     0.794464
      pz      :     0.014824  p :     0.058877
      px      :     0.017741
      py      :     0.026312
 21 H s       :     0.803553  s :     0.803553
      pz      :     0.015804  p :     0.059637
      px      :     0.014701
      py      :     0.029132


                      *****************************
                      * MAYER POPULATION ANALYSIS *
                      *****************************

  NA   - Mulliken gross atomic population
  ZA   - Total nuclear charge
  QA   - Mulliken gross atomic charge
  VA   - Mayer's total valence
  BVA  - Mayer's bonded valence
  FA   - Mayer's free valence

  ATOM       NA         ZA         QA         VA         BVA        FA
  0 O      8.4239     8.0000    -0.4239     2.0446     2.0446     0.0000
  1 C      5.8465     6.0000     0.1535     3.7286     3.7286     0.0000
  2 C      6.4279     6.0000    -0.4279     3.9136     3.9136     0.0000
  3 C      5.8932     6.0000     0.1068     3.6332     3.6332    -0.0000
  4 C      6.2070     6.0000    -0.2070     3.8882     3.8882     0.0000
  5 C      6.1544     6.0000    -0.1544     3.8627     3.8627    -0.0000
  6 N      7.2404     7.0000    -0.2404     3.5653     3.5653    -0.0000
  7 H      0.6696     1.0000     0.3304     0.8915     0.8915    -0.0000
  8 H      0.6828     1.0000     0.3172     0.9124     0.9124    -0.0000
  9 H      0.6740     1.0000     0.3260     0.8967     0.8967     0.0000
 10 C      6.2618     6.0000    -0.2618     3.9000     3.9000     0.0000
 11 C      6.2877     6.0000    -0.2877     3.8537     3.8537    -0.0000
 12 C      5.8093     6.0000     0.1907     3.9783     3.9783    -0.0000
 13 O      8.6209     8.0000    -0.6209     1.9099     1.9099    -0.0000
 14 H      0.6985     1.0000     0.3015     0.9769     0.9769     0.0000
 15 H      0.8884     1.0000     0.1116     0.9936     0.9936    -0.0000
 16 H      0.8634     1.0000     0.1366     0.9708     0.9708     0.0000
 17 H      0.8662     1.0000     0.1338     0.9707     0.9707    -0.0000
 18 H      0.8373     1.0000     0.1627     0.9677     0.9677    -0.0000
 19 H      0.8360     1.0000     0.1640     0.9700     0.9700    -0.0000
 20 H      0.8912     1.0000     0.1088     0.9699     0.9699    -0.0000
 21 H      0.9197     1.0000     0.0803     0.9998     0.9998    -0.0000

  Mayer bond orders larger than 0.100000
B(  0-O ,  1-C ) :   1.1832 B(  0-O , 14-H ) :   0.7759 B(  1-C ,  2-C ) :   1.3797 
B(  1-C , 12-C ) :   1.0602 B(  2-C ,  3-C ) :   1.2624 B(  2-C , 15-H ) :   0.9934 
B(  3-C ,  4-C ) :   0.9408 B(  3-C , 10-C ) :   1.3689 B(  4-C ,  5-C ) :   1.0070 
B(  4-C , 16-H ) :   0.9565 B(  4-C , 17-H ) :   0.9416 B(  5-C ,  6-N ) :   0.9347 
B(  5-C , 18-H ) :   0.9361 B(  5-C , 19-H ) :   0.9504 B(  6-N ,  7-H ) :   0.8704 
B(  6-N ,  8-H ) :   0.8602 B(  6-N ,  9-H ) :   0.8723 B( 10-C , 11-C ) :   1.3644 
B( 10-C , 20-H ) :   0.9786 B( 11-C , 12-C ) :   1.3011 B( 11-C , 21-H ) :   0.9849 
B( 12-C , 13-O ) :   1.5365 B( 13-O , 14-H ) :   0.1971 

-------
TIMINGS
-------

Total SCF time: 0 days 0 hours 0 min 9 sec 

Total time                  ....       9.693 sec
Sum of individual times     ....       8.818 sec  ( 91.0%)

Fock matrix formation       ....       7.500 sec  ( 77.4%)
  Split-RI-J                ....       1.645 sec  ( 21.9% of F)
  XC integration            ....       2.592 sec  ( 34.6% of F)
    Basis function eval.    ....       0.401 sec  ( 15.5% of XC)
    Density eval.           ....       0.575 sec  ( 22.2% of XC)
    XC-Functional eval.     ....       0.037 sec  (  1.4% of XC)
    XC-Potential eval.      ....       0.397 sec  ( 15.3% of XC)
Diagonalization             ....       0.058 sec  (  0.6%)
Density matrix formation    ....       0.024 sec  (  0.3%)
Population analysis         ....       0.052 sec  (  0.5%)
Initial guess               ....       0.085 sec  (  0.9%)
Orbital Transformation      ....       0.000 sec  (  0.0%)
Orbital Orthonormalization  ....       0.068 sec  (  0.7%)
DIIS solution               ....       0.024 sec  (  0.2%)
SOSCF solution              ....       0.306 sec  (  3.2%)
Grid generation             ....       0.769 sec  (  7.9%)

Maximum memory used throughout the entire SCF-calculation: 54.1 MB


-------------------------------------------------------------------------------
                          DFT DISPERSION CORRECTION                            
                                                                               
                              DFTD3 V3.1  Rev 1                                
                          USING Becke-Johnson damping                          
-------------------------------------------------------------------------------
The PBE functional is recognized
Active option DFTDOPT                   ...         4   

molecular C6(AA) [au] = 4697.289639 


            DFT-D V3
 parameters
 s6 scaling factor         :     1.0000 
 a1 scaling factor         :     0.4289 
 s8 scaling factor         :     0.7875 
 a2 scaling factor         :     4.4407 
 ad hoc parameters k1-k3   :    16.0000     1.3333    -4.0000 

 Edisp/kcal,au: -14.903486046371  -0.023750214256 
 E6   /kcal   : -10.562226718 
 E8   /kcal   :  -4.341259328 
 % E8         :  29.129153505 

-------------------------   ----------------
Dispersion correction           -0.023750214
-------------------------   ----------------


-------------------------   --------------------
FINAL SINGLE POINT ENERGY      -516.281808655860
-------------------------   --------------------

                                *** OPTIMIZATION RUN DONE ***

                            ***************************************
                            *     ORCA property calculations      *
                            ***************************************

                                    ---------------------
                                    Active property flags
                                    ---------------------
   (+) Dipole Moment


------------------------------------------------------------------------------
                       ORCA ELECTRIC PROPERTIES CALCULATION
------------------------------------------------------------------------------

Dipole Moment Calculation                       ... on
Quadrupole Moment Calculation                   ... off
Polarizability Calculation                      ... off
GBWName                                         ... 5_M0005.gbw
Electron density                                ... 5_M0005.scfp
The origin for moment calculation is the CENTER OF MASS  = ( 1.296886, -0.096362  0.692992)

-------------
DIPOLE MOMENT
-------------
                                X             Y             Z
Electronic contribution:      6.95354      -1.67415       2.58716
Nuclear contribution   :    -14.16059       0.55687      -7.85204
                        -----------------------------------------
Total Dipole Moment    :     -7.20705      -1.11728      -5.26488
                        -----------------------------------------
Magnitude (a.u.)       :      8.99494
Magnitude (Debye)      :     22.86331



--------------------
Rotational spectrum 
--------------------
 
Rotational constants in cm-1:     0.070960     0.022579     0.019348 
Rotational constants in MHz :  2127.335358   676.914401   580.033306 

 Dipole components along the rotational axes: 
x,y,z [a.u.] :    -8.716333     1.773974    -1.336942 
x,y,z [Debye]:   -22.155158     4.509084    -3.398236 

 
No protocol specified

Timings for individual modules:

Sum of individual times         ...      314.066 sec (=   5.234 min)
GTO integral calculation        ...       17.119 sec (=   0.285 min)   5.5 %
SCF iterations                  ...      221.865 sec (=   3.698 min)  70.6 %
SCF Gradient evaluation         ...       74.383 sec (=   1.240 min)  23.7 %
Geometry relaxation             ...        0.698 sec (=   0.012 min)   0.2 %



                             ****ORCA TERMINATED NORMALLY****
TOTAL RUN TIME: 0 days 0 hours 27 minutes 3 seconds 827 msec
