
                                 *****************
                                 * O   R   C   A *
                                 *****************

                                            #,                                       
                                            ###                                      
                                            ####                                     
                                            #####                                    
                                            ######                                   
                                           ########,                                 
                                     ,,################,,,,,                         
                               ,,#################################,,                 
                          ,,##########################################,,             
                       ,#########################################, ''#####,          
                    ,#############################################,,   '####,        
                  ,##################################################,,,,####,       
                ,###########''''           ''''###############################       
              ,#####''   ,,,,##########,,,,          '''####'''          '####       
            ,##' ,,,,###########################,,,                        '##       
           ' ,,###''''                  '''############,,,                           
         ,,##''                                '''############,,,,        ,,,,,,###''
      ,#''                                            '''#######################'''  
     '                                                          ''''####''''         
             ,#######,   #######,   ,#######,      ##                                
            ,#'     '#,  ##    ##  ,#'     '#,    #''#        ######   ,####,        
            ##       ##  ##   ,#'  ##            #'  '#       #        #'  '#        
            ##       ##  #######   ##           ,######,      #####,   #    #        
            '#,     ,#'  ##    ##  '#,     ,#' ,#      #,         ##   #,  ,#        
             '#######'   ##     ##  '#######'  #'      '#     #####' # '####'        



                  #######################################################
                  #                        -***-                        #
                  #          Department of theory and spectroscopy      #
                  #    Directorship and core code : Frank Neese         #
                  #        Max Planck Institute fuer Kohlenforschung    #
                  #                Kaiser Wilhelm Platz 1               #
                  #                 D-45470 Muelheim/Ruhr               #
                  #                      Germany                        #
                  #                                                     #
                  #                  All rights reserved                #
                  #                        -***-                        #
                  #######################################################


                         Program Version 5.0.2 -  RELEASE  -


 With contributions from (in alphabetic order):
   Daniel Aravena         : Magnetic Suceptibility
   Michael Atanasov       : Ab Initio Ligand Field Theory (pilot matlab implementation)
   Alexander A. Auer      : GIAO ZORA, VPT2 properties, NMR spectrum
   Ute Becker             : Parallelization
   Giovanni Bistoni       : ED, misc. LED, open-shell LED, HFLD
   Martin Brehm           : Molecular dynamics
   Dmytro Bykov           : SCF Hessian
   Vijay G. Chilkuri      : MRCI spin determinant printing, contributions to CSF-ICE
   Dipayan Datta          : RHF DLPNO-CCSD density
   Achintya Kumar Dutta   : EOM-CC, STEOM-CC
   Dmitry Ganyushin       : Spin-Orbit,Spin-Spin,Magnetic field MRCI
   Miquel Garcia          : C-PCM and meta-GGA Hessian, CC/C-PCM, Gaussian charge scheme
   Yang Guo               : DLPNO-NEVPT2, F12-NEVPT2, CIM, IAO-localization
   Andreas Hansen         : Spin unrestricted coupled pair/coupled cluster methods
   Benjamin Helmich-Paris : MC-RPA, TRAH-SCF, COSX integrals
   Lee Huntington         : MR-EOM, pCC
   Robert Izsak           : Overlap fitted RIJCOSX, COSX-SCS-MP3, EOM
   Marcus Kettner         : VPT2
   Christian Kollmar      : KDIIS, OOCD, Brueckner-CCSD(T), CCSD density, CASPT2, CASPT2-K
   Simone Kossmann        : Meta GGA functionals, TD-DFT gradient, OOMP2, MP2 Hessian
   Martin Krupicka        : Initial AUTO-CI
   Lucas Lang             : DCDCAS
   Marvin Lechner         : AUTO-CI (C++ implementation), FIC-MRCC
   Dagmar Lenk            : GEPOL surface, SMD
   Dimitrios Liakos       : Extrapolation schemes; Compound Job, initial MDCI parallelization
   Dimitrios Manganas     : Further ROCIS development; embedding schemes
   Dimitrios Pantazis     : SARC Basis sets
   Anastasios Papadopoulos: AUTO-CI, single reference methods and gradients
   Taras Petrenko         : DFT Hessian,TD-DFT gradient, ASA, ECA, R-Raman, ABS, FL, XAS/XES, NRVS
   Peter Pinski           : DLPNO-MP2, DLPNO-MP2 Gradient
   Christoph Reimann      : Effective Core Potentials
   Marius Retegan         : Local ZFS, SOC
   Christoph Riplinger    : Optimizer, TS searches, QM/MM, DLPNO-CCSD(T), (RO)-DLPNO pert. Triples
   Tobias Risthaus        : Range-separated hybrids, TD-DFT gradient, RPA, STAB
   Michael Roemelt        : Original ROCIS implementation
   Masaaki Saitow         : Open-shell DLPNO-CCSD energy and density
   Barbara Sandhoefer     : DKH picture change effects
   Avijit Sen             : IP-ROCIS
   Kantharuban Sivalingam : CASSCF convergence, NEVPT2, FIC-MRCI
   Bernardo de Souza      : ESD, SOC TD-DFT
   Georgi Stoychev        : AutoAux, RI-MP2 NMR, DLPNO-MP2 response
   Willem Van den Heuvel  : Paramagnetic NMR
   Boris Wezisla          : Elementary symmetry handling
   Frank Wennmohs         : Technical directorship


 We gratefully acknowledge several colleagues who have allowed us to
 interface, adapt or use parts of their codes:
   Stefan Grimme, W. Hujo, H. Kruse, P. Pracht,  : VdW corrections, initial TS optimization,
                  C. Bannwarth, S. Ehlert          DFT functionals, gCP, sTDA/sTD-DF
   Ed Valeev, F. Pavosevic, A. Kumar             : LibInt (2-el integral package), F12 methods
   Garnet Chan, S. Sharma, J. Yang, R. Olivares  : DMRG
   Ulf Ekstrom                                   : XCFun DFT Library
   Mihaly Kallay                                 : mrcc  (arbitrary order and MRCC methods)
   Jiri Pittner, Ondrej Demel                    : Mk-CCSD
   Frank Weinhold                                : gennbo (NPA and NBO analysis)
   Christopher J. Cramer and Donald G. Truhlar   : smd solvation model
   Lars Goerigk                                  : TD-DFT with DH, B97 family of functionals
   V. Asgeirsson, H. Jonsson                     : NEB implementation
   FAccTs GmbH                                   : IRC, NEB, NEB-TS, DLPNO-Multilevel, CI-OPT
                                                   MM, QMMM, 2- and 3-layer-ONIOM, Crystal-QMMM,
                                                   LR-CPCM, SF, NACMEs, symmetry and pop. for TD-DFT,
                                                   nearIR, NL-DFT gradient (VV10), updates on ESD,
                                                   ML-optimized integration grids
   S Lehtola, MJT Oliveira, MAL Marques          : LibXC Library
   Liviu Ungur et al                             : ANISO software


 Your calculation uses the libint2 library for the computation of 2-el integrals
 For citations please refer to: http://libint.valeyev.net

 Your ORCA version has been built with support for libXC version: 5.1.0
 For citations please refer to: https://tddft.org/programs/libxc/

 This ORCA versions uses:
   CBLAS   interface :  Fast vector & matrix operations
   LAPACKE interface :  Fast linear algebra routines
   SCALAPACK package :  Parallel linear algebra routines
   Shared memory     :  Shared parallel matrices
   BLAS/LAPACK       :  OpenBLAS 0.3.15  USE64BITINT DYNAMIC_ARCH NO_AFFINITY Haswell SINGLE_THREADED
        Core in use  :  Haswell
   Copyright (c) 2011-2014, The OpenBLAS Project


Your calculation utilizes the atom-pairwise dispersion correction
with the Becke-Johnson damping scheme (D3BJ)
Cite in your paper:
S.Grimme, S.Ehrlich, L.Goerigk, J Comput Chem, (2011), 32, 1456–1465 
S.Grimme, J.Antony, S.Ehrlich and H.Krieg, J.Chem.Phys., 132, (2010), 154104 
   

================================================================================

----- Orbital basis set information -----
Your calculation utilizes the basis: def2-TZVP
   F. Weigend and R. Ahlrichs, Phys. Chem. Chem. Phys. 7, 3297 (2005).

----- AuxJ basis set information -----
Your calculation utilizes the auxiliary basis: def2/J
   F. Weigend, Phys. Chem. Chem. Phys. 8, 1057 (2006).

================================================================================
                                        WARNINGS
                       Please study these warnings very carefully!
================================================================================


WARNING: your system is open-shell and RHF/RKS was chosen
  ===> : WILL SWITCH to UHF/UKS


WARNING: The environment variable RSH_COMMAND is not set!
  ===> : All Displacements for the Numerical Hessian or Gradient calculation
         will be started on localhost

INFO   : the flag for use of the SHARK integral package has been found!

Your calculation utilizes the atom-pairwise dispersion correction
with the Becke-Johnson damping scheme (D3BJ)
Cite in your paper:
S.Grimme, S.Ehrlich, L.Goerigk, J Comput Chem, (2011), 32, 1456–1465 
S.Grimme, J.Antony, S.Ehrlich and H.Krieg, J.Chem.Phys., 132, (2010), 154104 
   

================================================================================

----- Orbital basis set information -----
Your calculation utilizes the basis: def2-TZVP
   F. Weigend and R. Ahlrichs, Phys. Chem. Chem. Phys. 7, 3297 (2005).

----- AuxJ basis set information -----
Your calculation utilizes the auxiliary basis: def2/J
   F. Weigend, Phys. Chem. Chem. Phys. 8, 1057 (2006).

================================================================================
                                        WARNINGS
                       Please study these warnings very carefully!
================================================================================


WARNING: MOInp is set but Guess=PModel. MOInp will be ignored!
         To read the initial guess from a file you must also specify
         'MORead' in the simple input or 'Guess MORead' in the %scf block


WARNING: The environment variable RSH_COMMAND is not set!
  ===> : All Displacements for the Numerical Hessian or Gradient calculation
         will be started on localhost

INFO   : the flag for use of the SHARK integral package has been found!

Your calculation utilizes the atom-pairwise dispersion correction
with the Becke-Johnson damping scheme (D3BJ)
Cite in your paper:
S.Grimme, S.Ehrlich, L.Goerigk, J Comput Chem, (2011), 32, 1456–1465 
S.Grimme, J.Antony, S.Ehrlich and H.Krieg, J.Chem.Phys., 132, (2010), 154104 
   

================================================================================

----- Orbital basis set information -----
Your calculation utilizes the basis: def2-TZVP
   F. Weigend and R. Ahlrichs, Phys. Chem. Chem. Phys. 7, 3297 (2005).

----- AuxJ basis set information -----
Your calculation utilizes the auxiliary basis: def2/J
   F. Weigend, Phys. Chem. Chem. Phys. 8, 1057 (2006).

================================================================================
                                        WARNINGS
                       Please study these warnings very carefully!
================================================================================


WARNING: MOInp is set but Guess=PModel. MOInp will be ignored!
         To read the initial guess from a file you must also specify
         'MORead' in the simple input or 'Guess MORead' in the %scf block


WARNING: The environment variable RSH_COMMAND is not set!
  ===> : All Displacements for the Numerical Hessian or Gradient calculation
         will be started on localhost

INFO   : the flag for use of the SHARK integral package has been found!

Your calculation utilizes the atom-pairwise dispersion correction
with the Becke-Johnson damping scheme (D3BJ)
Cite in your paper:
S.Grimme, S.Ehrlich, L.Goerigk, J Comput Chem, (2011), 32, 1456–1465 
S.Grimme, J.Antony, S.Ehrlich and H.Krieg, J.Chem.Phys., 132, (2010), 154104 
   

================================================================================

----- Orbital basis set information -----
Your calculation utilizes the basis: def2-TZVP
   F. Weigend and R. Ahlrichs, Phys. Chem. Chem. Phys. 7, 3297 (2005).

----- AuxJ basis set information -----
Your calculation utilizes the auxiliary basis: def2/J
   F. Weigend, Phys. Chem. Chem. Phys. 8, 1057 (2006).

================================================================================
                                        WARNINGS
                       Please study these warnings very carefully!
================================================================================


WARNING: MOInp is set but Guess=PModel. MOInp will be ignored!
         To read the initial guess from a file you must also specify
         'MORead' in the simple input or 'Guess MORead' in the %scf block


WARNING: The environment variable RSH_COMMAND is not set!
  ===> : All Displacements for the Numerical Hessian or Gradient calculation
         will be started on localhost

INFO   : the flag for use of the SHARK integral package has been found!

Your calculation utilizes the atom-pairwise dispersion correction
with the Becke-Johnson damping scheme (D3BJ)
Cite in your paper:
S.Grimme, S.Ehrlich, L.Goerigk, J Comput Chem, (2011), 32, 1456–1465 
S.Grimme, J.Antony, S.Ehrlich and H.Krieg, J.Chem.Phys., 132, (2010), 154104 
   

================================================================================

----- Orbital basis set information -----
Your calculation utilizes the basis: def2-TZVP
   F. Weigend and R. Ahlrichs, Phys. Chem. Chem. Phys. 7, 3297 (2005).

----- AuxJ basis set information -----
Your calculation utilizes the auxiliary basis: def2/J
   F. Weigend, Phys. Chem. Chem. Phys. 8, 1057 (2006).

================================================================================
                                        WARNINGS
                       Please study these warnings very carefully!
================================================================================


WARNING: MOInp is set but Guess=PModel. MOInp will be ignored!
         To read the initial guess from a file you must also specify
         'MORead' in the simple input or 'Guess MORead' in the %scf block


WARNING: The environment variable RSH_COMMAND is not set!
  ===> : All Displacements for the Numerical Hessian or Gradient calculation
         will be started on localhost

INFO   : the flag for use of the SHARK integral package has been found!

================================================================================
                                       INPUT FILE
================================================================================
NAME = ex.inp
|  1> # preopt in PBE-D3
|  2> 
|  3> ! B3LYP D3 TightSCF def2-TZVP slowconv PModel cpcm(water) opt numfreq
|  4> %pal nprocs=16 end
|  5> %geom maxiter=150 end
|  6> %elprop Polar 1 end
|  7> %base "neutral"
|  8> *xyz 0 2
|  9>   C   -0.23364539440427     -0.98735152628088     -0.84773282505527
| 10>   C   -1.02767110642919      1.68942707754336     -0.62806803049625
| 11>   C   -1.60746445332909     -0.64537133626969     -0.89805403327819
| 12>   C   0.75237211097336      0.01632749144574     -0.66252812244628
| 13>   C   0.32264176234798      1.34840527028711     -0.54770055043061
| 14>   C   -2.00157891592881      0.69530106822817     -0.78844491708071
| 15>   O   -3.32565351266257      1.02805157571314     -0.81012388548239
| 16>   O   -2.60081034458877     -1.59237317610088     -1.02518659781967
| 17>   C   2.21100989484716     -0.34745874258546     -0.58413277700559
| 18>   C   2.84429756043200     -0.10162678989019      0.80338360407753
| 19>   N   2.27870365644594     -0.83354873286293      1.93737556833646
| 20>   H   0.06493040702076     -2.00327315009423     -1.13164697844048
| 21>   H   -1.34730625596179      2.72927348377886     -0.53898672168569
| 22>   H   1.06251390586273      2.13865726826407     -0.40421845828412
| 23>   H   -3.82427947538313      0.18465267342447     -0.86727723432820
| 24>   H   -2.44832128263309     -2.26170256206642     -0.29898469782720
| 25>   H   2.78477543669918      0.24326693052970     -1.31801610646968
| 26>   H   2.34018332626173     -1.40827638899108     -0.85086210988408
| 27>   H   3.91385481971695     -0.35758887016586      0.73122516569824
| 28>   H   2.79188255563150      0.97088112170735      1.04377169578348
| 29>   H   2.15189677940815     -1.83089365567171      1.74239756487284
| 30>   H   1.39022804593794     -0.44020821588623      2.26440628181045
| 31>   Cu  -0.37058157204127     -1.56276498478490      1.16984913122932
| 32>   Cu  -1.93477796141838     -2.97585744425151      2.10246930510010
| 33> *
| 34> 
| 35> 
| 36> $new_job
| 37> 
| 38> ! B3LYP D3 TightSCF def2-TZVP slowconv PModel cpcm(water) opt numfreq
| 39> %pal nprocs=16 end
| 40> %geom maxiter=150 end
| 41> %elprop Polar 1 end
| 42> %base "protonated"
| 43> *xyz 1 2
| 44>   C   -0.88416257855996     -1.68278740074542      0.01981041223918
| 45>   C   -0.32849300009850      0.95124170447599      0.83059819315456
| 46>   C   -1.93635792598135     -0.77751230862968      0.15374532378950
| 47>   C   0.43370589187214     -1.28912229278131      0.28847312233767
| 48>   C   0.73769462987678      0.01646263594628      0.68815392543955
| 49>   C   -1.66325504643015      0.55263058445612      0.57615888738157
| 50>   O   -3.21482217974102     -1.17752741052623     -0.07620261948603
| 51>   O   -2.76161584992584      1.33125502322169      0.80560050321137
| 52>   C   2.15686264312377      0.42403799156959      1.00454924174946
| 53>   C   2.76276211394759      1.48278342207174      0.08621288832306
| 54>   N   2.84620380289433      1.01790757308189     -1.33785737652931
| 55>   H   1.88822675687534      1.03022874442136     -1.80508257695447
| 56>   H   3.45005546954784      1.63977741014319     -1.89174909887800
| 57>   H   3.22900618188578      0.06533470990982     -1.41103562460073
| 58>   H   -1.11031123501203     -2.70312322838612     -0.29248872207083
| 59>   H   -0.14499656004835      1.94075243160862      1.25927205843605
| 60>   H   1.24122543255621     -2.01456140396591      0.17962999184162
| 61>   H   -3.81069476434219     -0.41751636248188      0.08432652139330
| 62>   H   -2.48927867098130      2.23171643669892      1.06679080470764
| 63>   H   2.79831319095347     -0.47035968944384      0.99567502049707
| 64>   H   2.20595406676136      0.84037816221870      2.02341079780934
| 65>   H   2.16671465049089      2.40471425388266      0.07472294756008
| 66>   H   3.78226726306253      1.72532565038454      0.40825470395076
| 67>   Cu  -0.44811082978192      1.13853923032209     -1.27364569863654
| 68>   Cu  0.19233000051549      1.51284175128813     -3.43552269150086
| 69> *
| 70> 
| 71> 
| 72> $new_job
| 73> 
| 74> ! B3LYP D3 TightSCF def2-TZVP slowconv PModel cpcm(water) opt numfreq
| 75> %pal nprocs=16 end
| 76> %geom maxiter=150 end
| 77> %elprop Polar 1 end
| 78> %base "deprotonated"
| 79> *xyz -1 2
| 80>   O   1.07693137461926     -3.17101816760735     -0.68580133064104
| 81>   O   2.94053581055090     -1.33253058403745     -0.67111136120413
| 82>   N   -2.87850396426089      1.38258441393047     -1.03876600781538
| 83>   C   -2.33519647369530     -0.02190864021129      1.01854038115330
| 84>   C   -0.91654740320482     -0.34150899515480      0.62062988486537
| 85>   C   -3.25563890658602      0.24164612093766     -0.19253609289305
| 86>   C   -0.57822605432950     -1.63528136546790      0.16906872043830
| 87>   C   0.08453795069104      0.63734867474251      0.62663036145473
| 88>   C   0.71343716706698     -1.91921599927202     -0.25152655682588
| 89>   C   1.39310816920703      0.35318628894309      0.20251328048443
| 90>   C   1.74282916100055     -0.93045498875656     -0.24706921581314
| 91>   H   -2.34730326363446      0.87012503508138      1.66689920505299
| 92>   H   -2.76485607203971     -0.85388605103417      1.60280717654608
| 93>   H   -4.28488275783106      0.40495700375837      0.16528649117666
| 94>   H   -3.27683737504813     -0.66023313286534     -0.82632303106789
| 95>   H   -1.33198631373302     -2.42783318158614      0.15145288545811
| 96>   H   -0.15736202172270      1.64495455103374      0.97501039192213
| 97>   H   2.16804109670366      1.12570222005714      0.21941569864751
| 98>   H   -1.90445777438536      1.25613072843521     -1.33436120860806
| 99>   H   -2.86747237244454      2.22969669094634     -0.46148973561632
|100>   H   2.03818510247195     -3.05310218601977     -0.89441412813609
|101>   Cu  6.53819217082332      0.82475741616526     -0.39692450935771
|102>   Cu  4.52860495127083     -0.27244079775232     -0.56269109303099
|103> *
|104> 
|105> $new_job
|106> 
|107> ! B3LYP D3 TightSCF def2-TZVP slowconv PModel cpcm(water) opt numfreq
|108> %pal nprocs=16 end
|109> %geom maxiter=150 end
|110> %elprop Polar 1 end
|111> %base "2x_deprotonated"
|112> *xyz -2 2
|113>   O   -1.68563516828733     -2.38808329051687      0.25957804752402
|114>   O   -3.24388947660113     -0.19390759982063     -0.33193038720620
|115>   N   3.08185828670686     -0.75615588995838     -1.22892942333943
|116>   C   2.30009333047954      0.46741579098789      0.86904147712968
|117>   C   0.82302678446089      0.30912619144841      0.59897304864293
|118>   C   3.15708374750629      0.46728369999397     -0.41461673401217
|119>   C   0.22558526485635     -0.96994004291786      0.57722330260574
|120>   C   0.01977966089033      1.41507013899769      0.29677189149050
|121>   C   -1.13476011820555     -1.18032839500135      0.26813248050428
|122>   C   -1.34214101344633      1.24602576919605     -0.01870159969783
|123>   C   -1.95632117735283     -0.02166487893373     -0.04524036442153
|124>   H   2.48957360061113      1.41405608693471      1.40471136385760
|125>   H   2.65701911374579     -0.34844465678219      1.52167631277656
|126>   H   4.21389847436717      0.63654145763836     -0.14987222284123
|127>   H   2.84625443246108      1.31583290257210     -1.04684303435049
|128>   H   0.83247475817601     -1.84981740265425      0.82098727453464
|129>   H   0.45307851296639      2.42019825625789      0.30864789756667
|130>   H   -1.96332262451219      2.12002338883087     -0.24383229098337
|131>   H   2.08952956032529     -0.96817007413991     -1.38453660307137
|132>   H   3.42604578163279     -1.54146774097460     -0.66667732036529
|133>   Cu  -3.66300257120509     -2.17591275329718     -0.21543915190417
|134>   Cu  -5.45201835525750     -3.63279822083500     -0.41441240214357
|135> *
|136> 
|137> $new_job
|138> 
|139> ! B3LYP D3 TightSCF def2-TZVP slowconv PModel cpcm(water) opt numfreq
|140> %pal nprocs=16 end
|141> %geom maxiter=150 end
|142> %elprop Polar 1 end
|143> %base "zwitterione"
|144> *xyz 0 2
|145>   O   2.00076932120825     -2.87691483319933     -0.19588327019587
|146>   C   1.57849735655581     -1.57673623104270     -0.30381332186392
|147>   C   0.22641616856914     -1.35795535426198     -0.55956637949910
|148>   C   -0.30297034895940     -0.06295889482644     -0.69471832067789
|149>   C   -1.78238602948989      0.14228450069040     -0.91348130001138
|150>   C   -2.58313787338961      0.04719821030108      0.38474210847264
|151>   N   -2.09966538469790      1.08136728576209      1.36186354284823
|152>   H   -2.51314534706538      0.95404878850245      2.29440431748864
|153>   H   -1.07090923297093      1.02201963437267      1.44990497715369
|154>   H   -2.32356631527589      2.03420178450978      1.04261980501078
|155>   C   0.57425521330352      1.02128523741901     -0.55884954179794
|156>   C   1.93270748543873      0.81359394758012     -0.29862597140771
|157>   C   2.48969499966498     -0.47691646779970     -0.16195101906542
|158>   O   3.78284719897882     -0.62946514985738      0.08259850902936
|159>   H   2.99015423471338     -2.87740930369838     -0.02813772667437
|160>   H   -0.42611468482637     -2.23014793440367     -0.65969756208096
|161>   H   -1.96689772389318      1.12401616841311     -1.37842450444969
|162>   H   -2.19102811516405     -0.61967799741638     -1.59428691267428
|163>   H   -3.65362306376510      0.22659994401393      0.22913768502716
|164>   H   -2.44440275667936     -0.92683888896339      0.86979051034867
|165>   H   0.19673685267902      2.04157242484419     -0.67163370510277
|166>   H   2.60943812508310      1.66607792023117     -0.20050030237607
|167>   Cu  5.98725417277871     -4.16797993535604      0.30791607564922
|168>   Cu  4.86280245338159     -2.18252436293257      0.20358933170200
|169> *
|170> 
|171>                          ****END OF INPUT****
================================================================================


                 $$$$$$$$$$$$$$$$$$$$$$$$$$$$$$$$$$$$$$$$$$$$$$ 
                 $ THERE ARE  5 JOBS TO BE PROCESSED THIS RUN $
                 $$$$$$$$$$$$$$$$$$$$$$$$$$$$$$$$$$$$$$$$$$$$$$ 




                 $$$$$$$$$$$$$$$$  JOB NUMBER  1 $$$$$$$$$$$$$$


                       *****************************
                       * Geometry Optimization Run *
                       *****************************

Geometry optimization settings:
Update method            Update   .... BFGS
Choice of coordinates    CoordSys .... Z-matrix Internals
Initial Hessian          InHess   .... Almoef's Model

Convergence Tolerances:
Energy Change            TolE     ....  5.0000e-06 Eh
Max. Gradient            TolMAXG  ....  3.0000e-04 Eh/bohr
RMS Gradient             TolRMSG  ....  1.0000e-04 Eh/bohr
Max. Displacement        TolMAXD  ....  4.0000e-03 bohr
RMS Displacement         TolRMSD  ....  2.0000e-03 bohr
Strict Convergence                ....  False
------------------------------------------------------------------------------
                        ORCA OPTIMIZATION COORDINATE SETUP
------------------------------------------------------------------------------

The optimization will be done in new redundant internal coordinates
Making redundant internal coordinates   ...  (new redundants) done
Evaluating the initial hessian          ...  (Almloef) done
Evaluating the coordinates              ...  done
Calculating the B-matrix                .... done
Calculating the G-matrix                .... done
Diagonalizing the G-matrix              .... done
Small eigenvalue found = 1.633e-02
The first mode is                       ....   98
The number of degrees of freedom        ....   66

    -----------------------------------------------------------------
                    Redundant Internal Coordinates


    -----------------------------------------------------------------
         Definition                    Initial Value    Approx d2E/dq
    -----------------------------------------------------------------
      1. B(C   2,C   0)                  1.4166         0.566553   
      2. B(C   3,C   0)                  1.4191         0.561408   
      3. B(C   4,C   3)                  1.4044         0.592646   
      4. B(C   4,C   1)                  1.3950         0.613365   
      5. B(C   5,C   2)                  1.4017         0.598526   
      6. B(C   5,C   1)                  1.4009         0.600286   
      7. B(O   6,C   5)                  1.3654         0.612484   
      8. B(O   7,C   2)                  1.3783         0.584174   
      9. B(C   8,C   3)                  1.5054         0.408967   
     10. B(C   9,C   8)                  1.5449         0.353688   
     11. B(N  10,C   9)                  1.4634         0.427335   
     12. B(H  11,C   0)                  1.0963         0.351875   
     13. B(H  12,C   1)                  1.0915         0.358115   
     14. B(H  13,C   4)                  1.0920         0.357445   
     15. B(H  14,O   6)                  0.9814         0.480582   
     16. B(H  15,O   7)                  0.9993         0.450036   
     17. B(H  16,C   8)                  1.1031         0.343227   
     18. B(H  17,C   8)                  1.1014         0.345283   
     19. B(H  18,C   9)                  1.1021         0.344414   
     20. B(H  19,C   9)                  1.1004         0.346644   
     21. B(H  20,N  10)                  1.0241         0.410856   
     22. B(H  21,N  10)                  1.0252         0.409194   
     23. B(Cu 22,C   3)                  2.6669         0.058037   
     24. B(Cu 22,C   2)                  2.5783         0.080349   
     25. B(Cu 22,C   0)                  2.1025         0.461447   
     26. B(Cu 23,Cu 22)                  2.3051         2.218511   
     27. A(H  11,C   0,Cu 22)           90.7241         0.372599   
     28. A(C   2,C   0,H  11)          118.5957         0.346230   
     29. A(C   3,C   0,Cu 22)           96.5217         0.453474   
     30. A(C   2,C   0,C   3)          120.5115         0.419585   
     31. A(C   2,C   0,Cu 22)           92.1200         0.454227   
     32. A(C   3,C   0,H  11)          119.9982         0.345699   
     33. A(C   4,C   1,C   5)          120.4006         0.430718   
     34. A(C   5,C   1,H  12)          118.8038         0.350658   
     35. A(C   4,C   1,H  12)          120.7729         0.351938   
     36. A(O   7,C   2,Cu 22)          100.0931         0.334563   
     37. A(C   0,C   2,C   5)          120.0521         0.424410   
     38. A(C   5,C   2,Cu 22)          114.3613         0.337964   
     39. A(C   0,C   2,O   7)          122.4344         0.419827   
     40. A(C   0,C   2,Cu 22)           54.5770         0.334890   
     41. A(C   5,C   2,O   7)          117.4995         0.423964   
     42. A(C   0,C   3,C   8)          120.6055         0.396075   
     43. A(C   0,C   3,C   4)          117.9633         0.422971   
     44. A(C   0,C   3,Cu 22)           51.5615         0.316965   
     45. A(C   4,C   3,C   8)          121.4300         0.399861   
     46. A(C   8,C   3,Cu 22)          103.2461         0.301191   
     47. A(C   4,C   3,Cu 22)          112.1236         0.319776   
     48. A(C   1,C   4,C   3)          121.5569         0.429729   
     49. A(C   3,C   4,H  13)          119.3295         0.349790   
     50. A(C   1,C   4,H  13)          119.1094         0.351826   
     51. A(C   1,C   5,O   6)          120.2010         0.427796   
     52. A(C   1,C   5,C   2)          119.4870         0.428829   
     53. A(C   2,C   5,O   6)          120.2985         0.427571   
     54. A(C   5,O   6,H  14)          106.5096         0.364389   
     55. A(C   2,O   7,H  15)          106.4509         0.357435   
     56. A(H  16,C   8,H  17)          107.0775         0.286769   
     57. A(C   9,C   8,H  17)          108.8250         0.319223   
     58. A(C   3,C   8,C   9)          113.9236         0.365584   
     59. A(C   3,C   8,H  17)          109.4980         0.326916   
     60. A(C   9,C   8,H  16)          107.4035         0.318912   
     61. A(C   3,C   8,H  16)          109.8737         0.326595   
     62. A(N  10,C   9,H  19)          107.4451         0.327529   
     63. A(C   8,C   9,H  19)          109.3767         0.319428   
     64. A(N  10,C   9,H  18)          108.0381         0.327181   
     65. A(C   8,C   9,H  18)          107.5809         0.319092   
     66. A(C   8,C   9,N  10)          117.2545         0.366050   
     67. A(H  18,C   9,H  19)          106.6721         0.287100   
     68. A(H  20,N  10,H  21)          109.0908         0.298098   
     69. A(C   9,N  10,H  21)          112.9693         0.333769   
     70. A(C   9,N  10,H  20)          112.7932         0.333994   
     71. A(C   3,Cu 22,Cu 23)          157.9296         0.488936   
     72. A(C   2,Cu 22,Cu 23)          102.5381         0.519493   
     73. A(C   0,Cu 22,Cu 23)          126.8863         0.728423   
     74. A(C   2,Cu 22,C   3)           55.9613         0.258561   
     75. A(C   0,Cu 22,C   3)           31.9168         0.340854   
     76. A(C   0,Cu 22,C   2)           33.3030         0.360097   
     77. D(O   7,C   2,C   0,H  11)     13.3540         0.025662   
     78. D(Cu 22,C   2,C   0,C   3)    -98.8438         0.025662   
     79. D(O   7,C   2,C   0,Cu 22)    -78.6279         0.025662   
     80. D(C   5,C   2,C   0,H  11)   -168.0391         0.025662   
     81. D(C   5,C   2,C   0,C   3)      1.1352         0.025662   
     82. D(C   5,C   2,C   0,Cu 22)     99.9790         0.025662   
     83. D(Cu 22,C   2,C   0,H  11)     91.9819         0.025662   
     84. D(O   7,C   2,C   0,C   3)   -177.4716         0.025662   
     85. D(C   8,C   3,C   0,Cu 22)     82.5532         0.025174   
     86. D(C   8,C   3,C   0,H  11)    -12.0748         0.025174   
     87. D(C   4,C   3,C   0,C   2)     -0.7164         0.025174   
     88. D(C   8,C   3,C   0,C   2)    178.9024         0.025174   
     89. D(C   4,C   3,C   0,H  11)    168.3064         0.025174   
     90. D(Cu 22,C   3,C   0,C   2)     96.3492         0.025174   
     91. D(C   4,C   3,C   0,Cu 22)    -97.0656         0.025174   
     92. D(Cu 22,C   3,C   0,H  11)    -94.6280         0.025174   
     93. D(H  13,C   4,C   3,Cu 22)    122.9296         0.026265   
     94. D(H  13,C   4,C   3,C   8)      0.3602         0.026265   
     95. D(C   1,C   4,C   3,C   0)     -0.7795         0.026265   
     96. D(C   3,C   4,C   1,C   5)      1.8723         0.026000   
     97. D(C   1,C   4,C   3,Cu 22)    -57.8255         0.026265   
     98. D(C   1,C   4,C   3,C   8)    179.6051         0.026265   
     99. D(H  13,C   4,C   3,C   0)    179.9756         0.026265   
    100. D(C   3,C   4,C   1,H  12)   -179.8818         0.026000   
    101. D(H  13,C   4,C   1,C   5)   -178.8812         0.026000   
    102. D(H  13,C   4,C   1,H  12)     -0.6353         0.026000   
    103. D(O   6,C   5,C   1,H  12)     -1.0431         0.024842   
    104. D(C   2,C   5,C   1,H  12)   -179.7062         0.024842   
    105. D(C   2,C   5,C   1,C   4)     -1.4261         0.024842   
    106. D(C   1,C   5,C   2,C   0)     -0.0587         0.026819   
    107. D(O   6,C   5,C   1,C   4)    177.2370         0.024842   
    108. D(O   6,C   5,C   2,Cu 22)   -116.9561         0.026819   
    109. D(O   6,C   5,C   2,O   7)     -0.0461         0.026819   
    110. D(O   6,C   5,C   2,C   0)   -178.7205         0.026819   
    111. D(C   1,C   5,C   2,Cu 22)     61.7056         0.026819   
    112. D(C   1,C   5,C   2,O   7)    178.6157         0.026819   
    113. D(H  14,O   6,C   5,C   2)      2.5185         0.027475   
    114. D(H  14,O   6,C   5,C   1)   -176.1336         0.027475   
    115. D(H  15,O   7,C   2,C   5)   -125.6609         0.027397   
    116. D(H  15,O   7,C   2,C   0)     52.9797         0.027397   
    117. D(H  15,O   7,C   2,Cu 22)     -1.2586         0.027397   
    118. D(H  17,C   8,C   3,Cu 22)     61.9850         0.013251   
    119. D(H  17,C   8,C   3,C   4)   -171.3394         0.013251   
    120. D(H  17,C   8,C   3,C   0)      9.0552         0.013251   
    121. D(H  16,C   8,C   3,Cu 22)    179.3236         0.013251   
    122. D(H  16,C   8,C   3,C   4)    -54.0008         0.013251   
    123. D(H  16,C   8,C   3,C   0)    126.3938         0.013251   
    124. D(C   9,C   8,C   3,Cu 22)    -60.1261         0.013251   
    125. D(C   9,C   8,C   3,C   0)   -113.0559         0.013251   
    126. D(C   9,C   8,C   3,C   4)     66.5495         0.013251   
    127. D(H  19,C   9,C   8,H  16)     59.9266         0.010062   
    128. D(H  19,C   9,C   8,C   3)    -61.9975         0.010062   
    129. D(H  18,C   9,C   8,H  17)     60.0247         0.010062   
    130. D(H  18,C   9,C   8,H  16)    -55.5701         0.010062   
    131. D(H  18,C   9,C   8,C   3)   -177.4942         0.010062   
    132. D(N  10,C   9,C   8,H  17)    -61.8867         0.010062   
    133. D(N  10,C   9,C   8,H  16)   -177.4815         0.010062   
    134. D(H  19,C   9,C   8,H  17)    175.5214         0.010062   
    135. D(N  10,C   9,C   8,C   3)     60.5944         0.010062   
    136. D(H  21,N  10,C   9,C   8)    -76.8353         0.015569   
    137. D(H  20,N  10,C   9,H  19)    171.0369         0.015569   
    138. D(H  20,N  10,C   9,H  18)    -74.2165         0.015569   
    139. D(H  20,N  10,C   9,C   8)     47.4580         0.015569   
    140. D(H  21,N  10,C   9,H  19)     46.7435         0.015569   
    141. D(H  21,N  10,C   9,H  18)    161.4902         0.015569   
    142. D(Cu 23,Cu 22,C   3,C   8)   -138.9841         0.001517   
    143. D(Cu 23,Cu 22,C   3,C   0)    -20.2380         0.001517   
    144. D(C   2,Cu 22,C   3,C   8)   -153.3383         0.001517   
    145. D(C   2,Cu 22,C   3,C   4)     74.2864         0.001517   
    146. D(C   2,Cu 22,C   3,C   0)    -34.5922         0.001517   
    147. D(C   0,Cu 22,C   3,C   8)   -118.7461         0.001517   
    148. D(C   0,Cu 22,C   3,C   4)    108.8786         0.001517   
    149. D(Cu 23,Cu 22,C   2,O   7)    -18.5727         0.001532   
    150. D(Cu 23,Cu 22,C   2,C   5)    107.9713         0.001532   
    151. D(Cu 23,Cu 22,C   2,C   0)   -141.3858         0.001532   
    152. D(C   3,Cu 22,C   2,O   7)    155.9513         0.001532   
    153. D(C   3,Cu 22,C   2,C   5)    -77.5047         0.001532   
    154. D(C   3,Cu 22,C   2,C   0)     33.1381         0.001532   
    155. D(C   0,Cu 22,C   2,O   7)    122.8131         0.001532   
    156. D(C   0,Cu 22,C   2,C   5)   -110.6429         0.001532   
    157. D(Cu 23,Cu 22,C   0,H  11)    -69.0402         0.002435   
    158. D(Cu 23,Cu 22,C   0,C   3)    170.6475         0.002435   
    159. D(Cu 23,Cu 22,C   0,C   2)     49.6100         0.002435   
    160. D(C   3,Cu 22,C   0,H  11)    120.3124         0.002435   
    161. D(C   3,Cu 22,C   0,C   2)   -121.0375         0.002435   
    162. D(Cu 23,Cu 22,C   3,C   4)     88.6406         0.001517   
    163. D(C   2,Cu 22,C   0,H  11)   -118.6501         0.002435   
    164. D(C   2,Cu 22,C   0,C   3)    121.0375         0.002435   
    -----------------------------------------------------------------

Number of atoms                         .... 24
Number of degrees of freedom            .... 164

         *************************************************************
         *                GEOMETRY OPTIMIZATION CYCLE   1            *
         *************************************************************
---------------------------------
CARTESIAN COORDINATES (ANGSTROEM)
---------------------------------
  C     -0.233645   -0.987352   -0.847733
  C     -1.027671    1.689427   -0.628068
  C     -1.607464   -0.645371   -0.898054
  C      0.752372    0.016327   -0.662528
  C      0.322642    1.348405   -0.547701
  C     -2.001579    0.695301   -0.788445
  O     -3.325654    1.028052   -0.810124
  O     -2.600810   -1.592373   -1.025187
  C      2.211010   -0.347459   -0.584133
  C      2.844298   -0.101627    0.803384
  N      2.278704   -0.833549    1.937376
  H      0.064930   -2.003273   -1.131647
  H     -1.347306    2.729273   -0.538987
  H      1.062514    2.138657   -0.404218
  H     -3.824279    0.184653   -0.867277
  H     -2.448321   -2.261703   -0.298985
  H      2.784775    0.243267   -1.318016
  H      2.340183   -1.408276   -0.850862
  H      3.913855   -0.357589    0.731225
  H      2.791883    0.970881    1.043772
  H      2.151897   -1.830894    1.742398
  H      1.390228   -0.440208    2.264406
  Cu    -0.370582   -1.562765    1.169849
  Cu    -1.934778   -2.975857    2.102469

----------------------------
CARTESIAN COORDINATES (A.U.)
----------------------------
  NO LB      ZA    FRAG     MASS         X           Y           Z
   0 C     6.0000    0    12.011   -0.441526   -1.865824   -1.601983
   1 C     6.0000    0    12.011   -1.942017    3.192554   -1.186877
   2 C     6.0000    0    12.011   -3.037668   -1.219575   -1.697076
   3 C     6.0000    0    12.011    1.421777    0.030854   -1.251997
   4 C     6.0000    0    12.011    0.609705    2.548117   -1.035004
   5 C     6.0000    0    12.011   -3.782436    1.313929   -1.489945
   6 O     8.0000    0    15.999   -6.284574    1.942736   -1.530912
   7 O     8.0000    0    15.999   -4.914819   -3.009149   -1.937322
   8 C     6.0000    0    12.011    4.178203   -0.656602   -1.103851
   9 C     6.0000    0    12.011    5.374943   -0.192047    1.518175
  10 N     7.0000    0    14.007    4.306126   -1.575179    3.661109
  11 H     1.0000    0     1.008    0.122701   -3.785638   -2.138503
  12 H     1.0000    0     1.008   -2.546040    5.157579   -1.018537
  13 H     1.0000    0     1.008    2.007860    4.041477   -0.763862
  14 H     1.0000    0     1.008   -7.226841    0.348943   -1.638916
  15 H     1.0000    0     1.008   -4.626657   -4.273998   -0.564999
  16 H     1.0000    0     1.008    5.262463    0.459708   -2.490689
  17 H     1.0000    0     1.008    4.422306   -2.661257   -1.607896
  18 H     1.0000    0     1.008    7.396114   -0.675745    1.381815
  19 H     1.0000    0     1.008    5.275893    1.834699    1.972443
  20 H     1.0000    0     1.008    4.066496   -3.459888    3.292654
  21 H     1.0000    0     1.008    2.627150   -0.831873    4.279108
  22 Cu   29.0000    0    63.550   -0.700298   -2.953198    2.210694
  23 Cu   29.0000    0    63.550   -3.656200   -5.623556    3.973091

--------------------------------
INTERNAL COORDINATES (ANGSTROEM)
--------------------------------
 C      0   0   0     0.000000000000     0.00000000     0.00000000
 C      1   0   0     2.800691548032     0.00000000     0.00000000
 C      1   2   0     1.416637385156    59.80943828     0.00000000
 C      1   2   3     1.419120457679    60.71113223   181.09214911
 C      2   1   3     1.395026755464    59.76520607   178.51746244
 C      2   1   3     1.400893889469    60.65145368   359.97059937
 O      6   2   1     1.365418036946   120.20097035   178.69257291
 O      3   1   2     1.378300124535   122.43440323   181.42272577
 C      4   1   2     1.505360567705   120.60554370   179.99810667
 C      9   4   1     1.544891039563   113.92364247   246.94406577
 N     10   9   4     1.463401506708   117.25454765    60.59440423
 H      1   2   3     1.096289880196   169.48811781    84.24517362
 H      2   1   3     1.091504767263   179.40830003    23.01288426
 H      5   2   1     1.092014706779   119.10941334   179.65026838
 H      7   6   2     0.981435715860   106.50959345   183.86636209
 H      8   3   1     0.999311733387   106.45093372    52.97967059
 H      9   4   1     1.103063216302   109.87366431   126.39383767
 H      9   4   1     1.101437420522   109.49801353     9.05520756
 H     10   9   4     1.102123476593   107.58091684   182.50583886
 H     10   9   4     1.100366751498   109.37674363   298.00248687
 H     11  10   9     1.024106098484   112.79316152    47.45798808
 H     11  10   9     1.025209617746   112.96933325   283.16467638
 Cu     1   2   3     2.102495925156    99.66241036   273.18965585
 Cu    23   1   2     2.305064214345   126.88633632   109.33429461

---------------------------
INTERNAL COORDINATES (A.U.)
---------------------------
 C      0   0   0     0.000000000000     0.00000000     0.00000000
 C      1   0   0     5.292540011368     0.00000000     0.00000000
 C      1   2   0     2.677056689020    59.80943828     0.00000000
 C      1   2   3     2.681749016059    60.71113223   181.09214911
 C      2   1   3     2.636218517321    59.76520607   178.51746244
 C      2   1   3     2.647305793780    60.65145368   359.97059937
 O      6   2   1     2.580266148145   120.20097035   178.69257291
 O      3   1   2     2.604609765721   122.43440323   181.42272577
 C      4   1   2     2.844719205767   120.60554370   179.99810667
 C      9   4   1     2.919420971523   113.92364247   246.94406577
 N     10   9   4     2.765428071646   117.25454765    60.59440423
 H      1   2   3     2.071687636960   169.48811781    84.24517362
 H      2   1   3     2.062645083996   179.40830003    23.01288426
 H      5   2   1     2.063608730027   119.10941334   179.65026838
 H      7   6   2     1.854644721024   106.50959345   183.86636209
 H      8   3   1     1.888425498516   106.45093372    52.97967059
 H      9   4   1     2.084487387214   109.87366431   126.39383767
 H      9   4   1     2.081415078440   109.49801353     9.05520756
 H     10   9   4     2.082711536526   107.58091684   182.50583886
 H     10   9   4     2.079391807203   109.37674363   298.00248687
 H     11  10   9     1.935280058212   112.79316152    47.45798808
 H     11  10   9     1.937365407402   112.96933325   283.16467638
 Cu     1   2   3     3.973141496231    99.66241036   273.18965585
 Cu    23   1   2     4.355940086214   126.88633632   109.33429461

---------------------
BASIS SET INFORMATION
---------------------
There are 5 groups of distinct atoms

 Group   1 Type C   : 11s6p2d1f contracted to 5s3p2d1f pattern {62111/411/11/1}
 Group   2 Type O   : 11s6p2d1f contracted to 5s3p2d1f pattern {62111/411/11/1}
 Group   3 Type N   : 11s6p2d1f contracted to 5s3p2d1f pattern {62111/411/11/1}
 Group   4 Type H   : 5s1p contracted to 3s1p pattern {311/1}
 Group   5 Type Cu  : 17s11p7d1f contracted to 6s4p4d1f pattern {842111/6311/4111/1}

Atom   0C    basis set group =>   1
Atom   1C    basis set group =>   1
Atom   2C    basis set group =>   1
Atom   3C    basis set group =>   1
Atom   4C    basis set group =>   1
Atom   5C    basis set group =>   1
Atom   6O    basis set group =>   2
Atom   7O    basis set group =>   2
Atom   8C    basis set group =>   1
Atom   9C    basis set group =>   1
Atom  10N    basis set group =>   3
Atom  11H    basis set group =>   4
Atom  12H    basis set group =>   4
Atom  13H    basis set group =>   4
Atom  14H    basis set group =>   4
Atom  15H    basis set group =>   4
Atom  16H    basis set group =>   4
Atom  17H    basis set group =>   4
Atom  18H    basis set group =>   4
Atom  19H    basis set group =>   4
Atom  20H    basis set group =>   4
Atom  21H    basis set group =>   4
Atom  22Cu   basis set group =>   5
Atom  23Cu   basis set group =>   5
---------------------------------
AUXILIARY/J BASIS SET INFORMATION
---------------------------------
There are 5 groups of distinct atoms

 Group   1 Type C   : 12s5p4d2f1g contracted to 6s4p3d1f1g pattern {711111/2111/211/2/1}
 Group   2 Type O   : 12s5p4d2f1g contracted to 6s4p3d1f1g pattern {711111/2111/211/2/1}
 Group   3 Type N   : 12s5p4d2f1g contracted to 6s4p3d1f1g pattern {711111/2111/211/2/1}
 Group   4 Type H   : 5s2p1d contracted to 3s1p1d pattern {311/2/1}
 Group   5 Type Cu  : 19s5p5d3f3g contracted to 8s5p4d3f3g pattern {121111111/11111/2111/111/111}

Atom   0C    basis set group =>   1
Atom   1C    basis set group =>   1
Atom   2C    basis set group =>   1
Atom   3C    basis set group =>   1
Atom   4C    basis set group =>   1
Atom   5C    basis set group =>   1
Atom   6O    basis set group =>   2
Atom   7O    basis set group =>   2
Atom   8C    basis set group =>   1
Atom   9C    basis set group =>   1
Atom  10N    basis set group =>   3
Atom  11H    basis set group =>   4
Atom  12H    basis set group =>   4
Atom  13H    basis set group =>   4
Atom  14H    basis set group =>   4
Atom  15H    basis set group =>   4
Atom  16H    basis set group =>   4
Atom  17H    basis set group =>   4
Atom  18H    basis set group =>   4
Atom  19H    basis set group =>   4
Atom  20H    basis set group =>   4
Atom  21H    basis set group =>   4
Atom  22Cu   basis set group =>   5
Atom  23Cu   basis set group =>   5
[file orca_main/mainfcts.cpp, line 629]: Error : multiplicity (2) is even and number of electrons (140) is even -> impossible

