
                                 *****************
                                 * O   R   C   A *
                                 *****************

                                            #,                                       
                                            ###                                      
                                            ####                                     
                                            #####                                    
                                            ######                                   
                                           ########,                                 
                                     ,,################,,,,,                         
                               ,,#################################,,                 
                          ,,##########################################,,             
                       ,#########################################, ''#####,          
                    ,#############################################,,   '####,        
                  ,##################################################,,,,####,       
                ,###########''''           ''''###############################       
              ,#####''   ,,,,##########,,,,          '''####'''          '####       
            ,##' ,,,,###########################,,,                        '##       
           ' ,,###''''                  '''############,,,                           
         ,,##''                                '''############,,,,        ,,,,,,###''
      ,#''                                            '''#######################'''  
     '                                                          ''''####''''         
             ,#######,   #######,   ,#######,      ##                                
            ,#'     '#,  ##    ##  ,#'     '#,    #''#        ######   ,####,        
            ##       ##  ##   ,#'  ##            #'  '#       #        #'  '#        
            ##       ##  #######   ##           ,######,      #####,   #    #        
            '#,     ,#'  ##    ##  '#,     ,#' ,#      #,         ##   #,  ,#        
             '#######'   ##     ##  '#######'  #'      '#     #####' # '####'        



                  #######################################################
                  #                        -***-                        #
                  #          Department of theory and spectroscopy      #
                  #    Directorship and core code : Frank Neese         #
                  #        Max Planck Institute fuer Kohlenforschung    #
                  #                Kaiser Wilhelm Platz 1               #
                  #                 D-45470 Muelheim/Ruhr               #
                  #                      Germany                        #
                  #                                                     #
                  #                  All rights reserved                #
                  #                        -***-                        #
                  #######################################################


                         Program Version 5.0.2 -  RELEASE  -


 With contributions from (in alphabetic order):
   Daniel Aravena         : Magnetic Suceptibility
   Michael Atanasov       : Ab Initio Ligand Field Theory (pilot matlab implementation)
   Alexander A. Auer      : GIAO ZORA, VPT2 properties, NMR spectrum
   Ute Becker             : Parallelization
   Giovanni Bistoni       : ED, misc. LED, open-shell LED, HFLD
   Martin Brehm           : Molecular dynamics
   Dmytro Bykov           : SCF Hessian
   Vijay G. Chilkuri      : MRCI spin determinant printing, contributions to CSF-ICE
   Dipayan Datta          : RHF DLPNO-CCSD density
   Achintya Kumar Dutta   : EOM-CC, STEOM-CC
   Dmitry Ganyushin       : Spin-Orbit,Spin-Spin,Magnetic field MRCI
   Miquel Garcia          : C-PCM and meta-GGA Hessian, CC/C-PCM, Gaussian charge scheme
   Yang Guo               : DLPNO-NEVPT2, F12-NEVPT2, CIM, IAO-localization
   Andreas Hansen         : Spin unrestricted coupled pair/coupled cluster methods
   Benjamin Helmich-Paris : MC-RPA, TRAH-SCF, COSX integrals
   Lee Huntington         : MR-EOM, pCC
   Robert Izsak           : Overlap fitted RIJCOSX, COSX-SCS-MP3, EOM
   Marcus Kettner         : VPT2
   Christian Kollmar      : KDIIS, OOCD, Brueckner-CCSD(T), CCSD density, CASPT2, CASPT2-K
   Simone Kossmann        : Meta GGA functionals, TD-DFT gradient, OOMP2, MP2 Hessian
   Martin Krupicka        : Initial AUTO-CI
   Lucas Lang             : DCDCAS
   Marvin Lechner         : AUTO-CI (C++ implementation), FIC-MRCC
   Dagmar Lenk            : GEPOL surface, SMD
   Dimitrios Liakos       : Extrapolation schemes; Compound Job, initial MDCI parallelization
   Dimitrios Manganas     : Further ROCIS development; embedding schemes
   Dimitrios Pantazis     : SARC Basis sets
   Anastasios Papadopoulos: AUTO-CI, single reference methods and gradients
   Taras Petrenko         : DFT Hessian,TD-DFT gradient, ASA, ECA, R-Raman, ABS, FL, XAS/XES, NRVS
   Peter Pinski           : DLPNO-MP2, DLPNO-MP2 Gradient
   Christoph Reimann      : Effective Core Potentials
   Marius Retegan         : Local ZFS, SOC
   Christoph Riplinger    : Optimizer, TS searches, QM/MM, DLPNO-CCSD(T), (RO)-DLPNO pert. Triples
   Tobias Risthaus        : Range-separated hybrids, TD-DFT gradient, RPA, STAB
   Michael Roemelt        : Original ROCIS implementation
   Masaaki Saitow         : Open-shell DLPNO-CCSD energy and density
   Barbara Sandhoefer     : DKH picture change effects
   Avijit Sen             : IP-ROCIS
   Kantharuban Sivalingam : CASSCF convergence, NEVPT2, FIC-MRCI
   Bernardo de Souza      : ESD, SOC TD-DFT
   Georgi Stoychev        : AutoAux, RI-MP2 NMR, DLPNO-MP2 response
   Willem Van den Heuvel  : Paramagnetic NMR
   Boris Wezisla          : Elementary symmetry handling
   Frank Wennmohs         : Technical directorship


 We gratefully acknowledge several colleagues who have allowed us to
 interface, adapt or use parts of their codes:
   Stefan Grimme, W. Hujo, H. Kruse, P. Pracht,  : VdW corrections, initial TS optimization,
                  C. Bannwarth, S. Ehlert          DFT functionals, gCP, sTDA/sTD-DF
   Ed Valeev, F. Pavosevic, A. Kumar             : LibInt (2-el integral package), F12 methods
   Garnet Chan, S. Sharma, J. Yang, R. Olivares  : DMRG
   Ulf Ekstrom                                   : XCFun DFT Library
   Mihaly Kallay                                 : mrcc  (arbitrary order and MRCC methods)
   Jiri Pittner, Ondrej Demel                    : Mk-CCSD
   Frank Weinhold                                : gennbo (NPA and NBO analysis)
   Christopher J. Cramer and Donald G. Truhlar   : smd solvation model
   Lars Goerigk                                  : TD-DFT with DH, B97 family of functionals
   V. Asgeirsson, H. Jonsson                     : NEB implementation
   FAccTs GmbH                                   : IRC, NEB, NEB-TS, DLPNO-Multilevel, CI-OPT
                                                   MM, QMMM, 2- and 3-layer-ONIOM, Crystal-QMMM,
                                                   LR-CPCM, SF, NACMEs, symmetry and pop. for TD-DFT,
                                                   nearIR, NL-DFT gradient (VV10), updates on ESD,
                                                   ML-optimized integration grids
   S Lehtola, MJT Oliveira, MAL Marques          : LibXC Library
   Liviu Ungur et al                             : ANISO software


 Your calculation uses the libint2 library for the computation of 2-el integrals
 For citations please refer to: http://libint.valeyev.net

 Your ORCA version has been built with support for libXC version: 5.1.0
 For citations please refer to: https://tddft.org/programs/libxc/

 This ORCA versions uses:
   CBLAS   interface :  Fast vector & matrix operations
   LAPACKE interface :  Fast linear algebra routines
   SCALAPACK package :  Parallel linear algebra routines
   Shared memory     :  Shared parallel matrices
   BLAS/LAPACK       :  OpenBLAS 0.3.15  USE64BITINT DYNAMIC_ARCH NO_AFFINITY Haswell SINGLE_THREADED
        Core in use  :  Haswell
   Copyright (c) 2011-2014, The OpenBLAS Project


Your calculation utilizes the atom-pairwise dispersion correction
with the Becke-Johnson damping scheme (D3BJ)
Cite in your paper:
S.Grimme, S.Ehrlich, L.Goerigk, J Comput Chem, (2011), 32, 1456–1465 
S.Grimme, J.Antony, S.Ehrlich and H.Krieg, J.Chem.Phys., 132, (2010), 154104 
   

================================================================================

----- Orbital basis set information -----
Your calculation utilizes the basis: def2-TZVP
   F. Weigend and R. Ahlrichs, Phys. Chem. Chem. Phys. 7, 3297 (2005).

----- AuxJ basis set information -----
Your calculation utilizes the auxiliary basis: def2/J
   F. Weigend, Phys. Chem. Chem. Phys. 8, 1057 (2006).

================================================================================
                                        WARNINGS
                       Please study these warnings very carefully!
================================================================================

WARNING: Gradients needed for Numerical Frequencies
  ===> : Setting RunTyp to EnGrad

WARNING: The environment variable RSH_COMMAND is not set!
  ===> : All Displacements for the Numerical Hessian or Gradient calculation
         will be started on localhost

INFO   : the flag for use of the SHARK integral package has been found!

Your calculation utilizes the atom-pairwise dispersion correction
with the Becke-Johnson damping scheme (D3BJ)
Cite in your paper:
S.Grimme, S.Ehrlich, L.Goerigk, J Comput Chem, (2011), 32, 1456–1465 
S.Grimme, J.Antony, S.Ehrlich and H.Krieg, J.Chem.Phys., 132, (2010), 154104 
   

================================================================================

----- Orbital basis set information -----
Your calculation utilizes the basis: def2-TZVP
   F. Weigend and R. Ahlrichs, Phys. Chem. Chem. Phys. 7, 3297 (2005).

----- AuxJ basis set information -----
Your calculation utilizes the auxiliary basis: def2/J
   F. Weigend, Phys. Chem. Chem. Phys. 8, 1057 (2006).

================================================================================
                                        WARNINGS
                       Please study these warnings very carefully!
================================================================================


WARNING: MOInp is set but Guess=PModel. MOInp will be ignored!
         To read the initial guess from a file you must also specify
         'MORead' in the simple input or 'Guess MORead' in the %scf block

WARNING: Gradients needed for Numerical Frequencies
  ===> : Setting RunTyp to EnGrad

WARNING: your system is open-shell and RHF/RKS was chosen
  ===> : WILL SWITCH to UHF/UKS


WARNING: The environment variable RSH_COMMAND is not set!
  ===> : All Displacements for the Numerical Hessian or Gradient calculation
         will be started on localhost

INFO   : the flag for use of the SHARK integral package has been found!

Your calculation utilizes the atom-pairwise dispersion correction
with the Becke-Johnson damping scheme (D3BJ)
Cite in your paper:
S.Grimme, S.Ehrlich, L.Goerigk, J Comput Chem, (2011), 32, 1456–1465 
S.Grimme, J.Antony, S.Ehrlich and H.Krieg, J.Chem.Phys., 132, (2010), 154104 
   

================================================================================

----- Orbital basis set information -----
Your calculation utilizes the basis: def2-TZVP
   F. Weigend and R. Ahlrichs, Phys. Chem. Chem. Phys. 7, 3297 (2005).

----- AuxJ basis set information -----
Your calculation utilizes the auxiliary basis: def2/J
   F. Weigend, Phys. Chem. Chem. Phys. 8, 1057 (2006).

================================================================================
                                        WARNINGS
                       Please study these warnings very carefully!
================================================================================


WARNING: MOInp is set but Guess=PModel. MOInp will be ignored!
         To read the initial guess from a file you must also specify
         'MORead' in the simple input or 'Guess MORead' in the %scf block

WARNING: Gradients needed for Numerical Frequencies
  ===> : Setting RunTyp to EnGrad

WARNING: The environment variable RSH_COMMAND is not set!
  ===> : All Displacements for the Numerical Hessian or Gradient calculation
         will be started on localhost

INFO   : the flag for use of the SHARK integral package has been found!

Your calculation utilizes the atom-pairwise dispersion correction
with the Becke-Johnson damping scheme (D3BJ)
Cite in your paper:
S.Grimme, S.Ehrlich, L.Goerigk, J Comput Chem, (2011), 32, 1456–1465 
S.Grimme, J.Antony, S.Ehrlich and H.Krieg, J.Chem.Phys., 132, (2010), 154104 
   

================================================================================

----- Orbital basis set information -----
Your calculation utilizes the basis: def2-TZVP
   F. Weigend and R. Ahlrichs, Phys. Chem. Chem. Phys. 7, 3297 (2005).

----- AuxJ basis set information -----
Your calculation utilizes the auxiliary basis: def2/J
   F. Weigend, Phys. Chem. Chem. Phys. 8, 1057 (2006).

================================================================================
                                        WARNINGS
                       Please study these warnings very carefully!
================================================================================

WARNING: Old DensityContainer found on disk!
         Will remove this file - 
         If you want to keep old densities, please start your calculation with a different basename. 


WARNING: MOInp is set but Guess=PModel. MOInp will be ignored!
         To read the initial guess from a file you must also specify
         'MORead' in the simple input or 'Guess MORead' in the %scf block

WARNING: Gradients needed for Numerical Frequencies
  ===> : Setting RunTyp to EnGrad

WARNING: The environment variable RSH_COMMAND is not set!
  ===> : All Displacements for the Numerical Hessian or Gradient calculation
         will be started on localhost

INFO   : the flag for use of the SHARK integral package has been found!

================================================================================
                                       INPUT FILE
================================================================================
NAME = Cu8_Td_opt.txt
|  1> ! PBE D3 def2-TZVP numfreq PModel NOAUTOSTART
|  2> %pal nprocs=16 end
|  3> %geom maxiter=150 end
|  4> 
|  5> %base "CU8_Td_0"
|  6> 
|  7> * xyz 0 1
|  8> Cu      -1.016417000      1.016417000      1.016417000
|  9> Cu      -1.016417000     -1.016417000     -1.016417000
| 10> Cu       1.016417000      1.016417000     -1.016417000
| 11> Cu       1.637669000      1.637669000      1.637669000
| 12> Cu       1.016417000     -1.016417000      1.016417000
| 13> Cu      -1.637669000      1.637669000     -1.637669000
| 14> Cu      -1.637669000     -1.637669000      1.637669000
| 15> Cu       1.637669000     -1.637669000     -1.637669000
| 16> *
| 17> 
| 18> $new_job
| 19> ! PBE D3 def2-TZVP numfreq PModel NOAUTOSTART
| 20> %pal nprocs=16 end
| 21> %geom maxiter=150 end
| 22> 
| 23> %base "CU8_Td_1"
| 24> 
| 25> * xyz 1 2
| 26> Cu      -1.046388000      1.009814000      0.998945000
| 27> Cu      -1.034751000     -1.000005000     -1.009709000
| 28> Cu       1.034998000      0.999766000     -1.009942000
| 29> Cu       1.493668000      1.718783000      1.734190000
| 30> Cu       1.046135000     -1.010079000      0.998734000
| 31> Cu      -1.509125000      1.735544000     -1.723218000
| 32> Cu      -1.494008000     -1.718544000      1.734574000
| 33> Cu       1.509471000     -1.735279000     -1.723574000
| 34> *
| 35> 
| 36> $new_job
| 37> ! PBE D3 def2-TZVP numfreq PModel NOAUTOSTART
| 38> %pal nprocs=16 end
| 39> %geom maxiter=150 end
| 40> 
| 41> %base "CU8_Td_2"
| 42> 
| 43> * xyz 2 1
| 44> Cu      -1.014282000      1.032880000      0.654726000
| 45> Cu      -0.956558000     -0.939892000     -1.534698000
| 46> Cu       0.956729000      0.939921000     -1.533923000
| 47> Cu       0.960637000      0.950647000      2.742998000
| 48> Cu       1.014054000     -1.033165000      0.654864000
| 49> Cu      -1.768744000      1.808765000     -1.863576000
| 50> Cu      -0.960976000     -0.950580000      2.743005000
| 51> Cu       1.769139000     -1.808578000     -1.863396000
| 52> *
| 53> 
| 54> $new_job
| 55> ! PBE D3 def2-TZVP numfreq PModel NOAUTOSTART
| 56> %pal nprocs=16 end
| 57> %geom maxiter=150 end
| 58> 
| 59> %base "CU8_C2v_3"
| 60> 
| 61> * xyz 3 2
| 62> Cu      -0.968831000      0.984841000      0.709920000
| 63> Cu      -0.975410000     -0.957060000     -1.632300000
| 64> Cu       0.975647000      0.957125000     -1.631782000
| 65> Cu       0.975755000      0.961997000      2.906362000
| 66> Cu       0.968597000     -0.985038000      0.710053000
| 67> Cu      -1.798038000      1.837047000     -1.984413000
| 68> Cu      -0.976166000     -0.962054000      2.906358000
| 69> Cu       1.798444000     -1.836860000     -1.984198000
| 70> *
| 71> 
| 72>                          ****END OF INPUT****
================================================================================


                 $$$$$$$$$$$$$$$$$$$$$$$$$$$$$$$$$$$$$$$$$$$$$$ 
                 $ THERE ARE  4 JOBS TO BE PROCESSED THIS RUN $
                 $$$$$$$$$$$$$$$$$$$$$$$$$$$$$$$$$$$$$$$$$$$$$$ 




                 $$$$$$$$$$$$$$$$  JOB NUMBER  1 $$$$$$$$$$$$$$


                     *******************************
                     * Energy+Gradient Calculation *
                     *******************************

---------------------------------
CARTESIAN COORDINATES (ANGSTROEM)
---------------------------------
  Cu    -1.016417    1.016417    1.016417
  Cu    -1.016417   -1.016417   -1.016417
  Cu     1.016417    1.016417   -1.016417
  Cu     1.637669    1.637669    1.637669
  Cu     1.016417   -1.016417    1.016417
  Cu    -1.637669    1.637669   -1.637669
  Cu    -1.637669   -1.637669    1.637669
  Cu     1.637669   -1.637669   -1.637669

----------------------------
CARTESIAN COORDINATES (A.U.)
----------------------------
  NO LB      ZA    FRAG     MASS         X           Y           Z
   0 Cu   29.0000    0    63.550   -1.920750    1.920750    1.920750
   1 Cu   29.0000    0    63.550   -1.920750   -1.920750   -1.920750
   2 Cu   29.0000    0    63.550    1.920750    1.920750   -1.920750
   3 Cu   29.0000    0    63.550    3.094746    3.094746    3.094746
   4 Cu   29.0000    0    63.550    1.920750   -1.920750    1.920750
   5 Cu   29.0000    0    63.550   -3.094746    3.094746   -3.094746
   6 Cu   29.0000    0    63.550   -3.094746   -3.094746    3.094746
   7 Cu   29.0000    0    63.550    3.094746   -3.094746   -3.094746

--------------------------------
INTERNAL COORDINATES (ANGSTROEM)
--------------------------------
 Cu     0   0   0     0.000000000000     0.00000000     0.00000000
 Cu     1   0   0     2.874861412853     0.00000000     0.00000000
 Cu     1   2   0     2.874861412853    60.00000000     0.00000000
 Cu     3   1   2     2.795725413985    59.05914055   219.71996210
 Cu     4   3   1     2.795725413985    61.88171890    71.31736663
 Cu     1   2   3     2.795725413985    59.05914055    69.75125853
 Cu     2   1   3     2.795725413985    59.05914055   140.28003790
 Cu     5   4   3     2.795725413985   111.87200174    27.55177604

---------------------------
INTERNAL COORDINATES (A.U.)
---------------------------
 Cu     0   0   0     0.000000000000     0.00000000     0.00000000
 Cu     1   0   0     5.432700743270     0.00000000     0.00000000
 Cu     1   2   0     5.432700743270    60.00000000     0.00000000
 Cu     3   1   2     5.283155378076    59.05914055   219.71996210
 Cu     4   3   1     5.283155378076    61.88171890    71.31736663
 Cu     1   2   3     5.283155378076    59.05914055    69.75125853
 Cu     2   1   3     5.283155378076    59.05914055   140.28003790
 Cu     5   4   3     5.283155378076   111.87200174    27.55177604

---------------------
BASIS SET INFORMATION
---------------------
There are 1 groups of distinct atoms

 Group   1 Type Cu  : 17s11p7d1f contracted to 6s4p4d1f pattern {842111/6311/4111/1}

Atom   0Cu   basis set group =>   1
Atom   1Cu   basis set group =>   1
Atom   2Cu   basis set group =>   1
Atom   3Cu   basis set group =>   1
Atom   4Cu   basis set group =>   1
Atom   5Cu   basis set group =>   1
Atom   6Cu   basis set group =>   1
Atom   7Cu   basis set group =>   1
---------------------------------
AUXILIARY/J BASIS SET INFORMATION
---------------------------------
There are 1 groups of distinct atoms

 Group   1 Type Cu  : 19s5p5d3f3g contracted to 8s5p4d3f3g pattern {121111111/11111/2111/111/111}

Atom   0Cu   basis set group =>   1
Atom   1Cu   basis set group =>   1
Atom   2Cu   basis set group =>   1
Atom   3Cu   basis set group =>   1
Atom   4Cu   basis set group =>   1
Atom   5Cu   basis set group =>   1
Atom   6Cu   basis set group =>   1
Atom   7Cu   basis set group =>   1
No protocol specified


           ************************************************************
           *        Program running with 16 parallel MPI-processes    *
           *              working on a common directory               *
           ************************************************************
------------------------------------------------------------------------------
                           ORCA GTO INTEGRAL CALCULATION
                           -- RI-GTO INTEGRALS CHOSEN --
------------------------------------------------------------------------------
------------------------------------------------------------------------------
                   ___                                                        
                  /   \      - P O W E R E D   B Y -                         
                 /     \                                                     
                 |  |  |   _    _      __       _____    __    __             
                 |  |  |  | |  | |    /  \     |  _  \  |  |  /  |          
                  \  \/   | |  | |   /    \    | | | |  |  | /  /          
                 / \  \   | |__| |  /  /\  \   | |_| |  |  |/  /          
                |  |  |   |  __  | /  /__\  \  |    /   |      \           
                |  |  |   | |  | | |   __   |  |    \   |  |\   \          
                \     /   | |  | | |  |  |  |  | |\  \  |  | \   \       
                 \___/    |_|  |_| |__|  |__|  |_| \__\ |__|  \__/        
                                                                              
                      - O R C A' S   B I G   F R I E N D -                    
                                      &                                       
                       - I N T E G R A L  F E E D E R -                       
                                                                              
 v1 FN, 2020, v2 2021                                                         
------------------------------------------------------------------------------


Reading SHARK input file CU8_Td_0.SHARKINP.tmp ... ok
----------------------
SHARK INTEGRAL PACKAGE
----------------------

Number of atoms                             ...      8
Number of basis functions                   ...    360
Number of shells                            ...    120
Maximum angular momentum                    ...      3
Integral batch strategy                     ... SHARK/LIBINT Hybrid
RI-J (if used) integral strategy            ... SPLIT-RIJ (Revised 2003 algorithm where possible)
Printlevel                                  ...      1
Contraction scheme used                     ... SEGMENTED contraction
Coulomb Range Separation                    ... NOT USED
Exchange Range Separation                   ... NOT USED
Finite Nucleus Model                        ... NOT USED
Auxiliary Coulomb fitting basis             ... AVAILABLE
   # of basis functions in Aux-J            ...    728
   # of shells in Aux-J                     ...    184
   Maximum angular momentum in Aux-J        ...      4
Auxiliary J/K fitting basis                 ... NOT available
Auxiliary Correlation fitting basis         ... NOT available
Auxiliary 'external' fitting basis          ... NOT available
Integral threshold                          ...     2.500000e-11
Primitive cut-off                           ...     2.500000e-12
Primitive pair pre-selection threshold      ...     2.500000e-12

Calculating pre-screening integrals         ... done (  0.1 sec) Dimension = 120
Organizing shell pair data                  ... done (  0.3 sec)
Shell pair information
Total number of shell pairs                 ...      7260
Shell pairs after pre-screening             ...      5474
Total number of primitive shell pairs       ...     42088
Primitive shell pairs kept                  ...     18378
          la=0 lb=0:    842 shell pairs
          la=1 lb=0:   1080 shell pairs
          la=1 lb=1:    388 shell pairs
          la=2 lb=0:   1268 shell pairs
          la=2 lb=1:    832 shell pairs
          la=2 lb=2:    470 shell pairs
          la=3 lb=0:    220 shell pairs
          la=3 lb=1:    160 shell pairs
          la=3 lb=2:    188 shell pairs
          la=3 lb=3:     26 shell pairs

Calculating one electron integrals          ... done (  0.0 sec)
Calculating RI/J V-Matrix + Cholesky decomp.... done (  0.0 sec)
Calculating Nuclear repulsion               ... done (  0.0 sec) ENN=   3802.753737005815 Eh

SHARK setup successfully completed in   0.7 seconds

Maximum memory used throughout the entire GTOINT-calculation: 24.0 MB
No protocol specified


           ************************************************************
           *        Program running with 16 parallel MPI-processes    *
           *              working on a common directory               *
           ************************************************************
-------------------------------------------------------------------------------
                                 ORCA SCF
-------------------------------------------------------------------------------

------------
SCF SETTINGS
------------
Hamiltonian:
 Density Functional     Method          .... DFT(GTOs)
 Exchange Functional    Exchange        .... PBE
   PBE kappa parameter   XKappa         ....  0.804000
   PBE mue parameter    XMuePBE         ....  0.219520
 Correlation Functional Correlation     .... PBE
   PBE beta parameter  CBetaPBE         ....  0.066725
 LDA part of GGA corr.  LDAOpt          .... PW91-LDA
 Gradients option       PostSCFGGA      .... off
   Density functional embedding theory  .... OFF
   NL short-range parameter             ....  6.400000
 RI-approximation to the Coulomb term is turned on
   Number of AuxJ basis functions       .... 728


General Settings:
 Integral files         IntName         .... CU8_Td_0
 Hartree-Fock type      HFTyp           .... RHF
 Total Charge           Charge          ....    0
 Multiplicity           Mult            ....    1
 Number of Electrons    NEL             ....  232
 Basis Dimension        Dim             ....  360
 Nuclear Repulsion      ENuc            ....   3802.7537370058 Eh

Convergence Acceleration:
 DIIS                   CNVDIIS         .... on
   Start iteration      DIISMaxIt       ....    12
   Startup error        DIISStart       ....  0.200000
   # of expansion vecs  DIISMaxEq       ....     5
   Bias factor          DIISBfac        ....   1.050
   Max. coefficient     DIISMaxC        ....  10.000
 Trust-Rad. Augm. Hess. CNVTRAH         .... auto
   Auto Start mean grad. ratio tolernc. ....  1.125000
   Auto Start start iteration           ....    20
   Auto Start num. interpolation iter.  ....    10
   Max. Number of Micro iterations      ....    16
   Max. Number of Macro iterations      .... Maxiter - #DIIS iter
   Number of Davidson start vectors     ....     2
   Converg. threshold I  (grad. norm)   ....   1.000e-05
   Converg. threshold II (energy diff.) ....   1.000e-08
   Grad. Scal. Fac. for Micro threshold ....   0.100
   Minimum threshold for Micro iter.    ....   0.010
   NR start threshold (gradient norm)   ....   0.001
   Initial trust radius                 ....   0.400
   Minimum AH scaling param. (alpha)    ....   1.000
   Maximum AH scaling param. (alpha)    .... 1000.000
   Orbital update algorithm             .... Taylor
   White noise on init. David. guess    .... on
   Maximum white noise                  ....   0.010
   Quad. conv. algorithm                .... NR
 SOSCF                  CNVSOSCF        .... off
 Level Shifting         CNVShift        .... on
   Level shift para.    LevelShift      ....    0.2500
   Turn off err/grad.   ShiftErr        ....    0.0010
 Zerner damping         CNVZerner       .... off
 Static damping         CNVDamp         .... on
   Fraction old density DampFac         ....    0.7000
   Max. Damping (<1)    DampMax         ....    0.9800
   Min. Damping (>=0)   DampMin         ....    0.0000
   Turn off err/grad.   DampErr         ....    0.1000
 Fernandez-Rico         CNVRico         .... off

SCF Procedure:
 Maximum # iterations   MaxIter         ....   125
 SCF integral mode      SCFMode         .... Direct
   Integral package                     .... SHARK and LIBINT hybrid scheme
 Reset frequency        DirectResetFreq ....    20
 Integral Threshold     Thresh          ....  2.500e-11 Eh
 Primitive CutOff       TCut            ....  2.500e-12 Eh

Convergence Tolerance:
 Convergence Check Mode ConvCheckMode   .... Total+1el-Energy
 Convergence forced     ConvForced      .... 0
 Energy Change          TolE            ....  1.000e-08 Eh
 1-El. energy change                    ....  1.000e-05 Eh
 DIIS Error             TolErr          ....  5.000e-07


Diagonalization of the overlap matrix:
Smallest eigenvalue                        ... 8.680e-03
Time for diagonalization                   ...    0.021 sec
Threshold for overlap eigenvalues          ... 1.000e-08
Number of eigenvalues below threshold      ... 0
Time for construction of square roots      ...    0.019 sec
Total time needed                          ...    0.042 sec

Time for model grid setup =    0.258 sec

------------------------------
INITIAL GUESS: MODEL POTENTIAL
------------------------------
Loading Hartree-Fock densities                     ... done
Calculating cut-offs                               ... done
Initializing the effective Hamiltonian             ... done
Setting up the integral package (SHARK)            ... done
Starting the Coulomb interaction                   ... done (   0.1 sec)
Reading the grid                                   ... done
Mapping shells                                     ... done
Starting the XC term evaluation                    ... done (   0.1 sec)
  promolecular density results
     # of electrons  =    232.000829755
     EX              =   -523.918462038
     EC              =    -10.864905151
     EX+EC           =   -534.783367189
Transforming the Hamiltonian                       ... done (   0.0 sec)
Diagonalizing the Hamiltonian                      ... done (   0.0 sec)
Back transforming the eigenvectors                 ... done (   0.0 sec)
Now organizing SCF variables                       ... done
                      ------------------
                      INITIAL GUESS DONE (   0.5 sec)
                      ------------------
-------------------
DFT GRID GENERATION
-------------------

General Integration Accuracy     IntAcc      ... 4.388
Radial Grid Type                 RadialGrid  ... OptM3 with GC (2021)
Angular Grid (max. ang.)         AngularGrid ... 4 (Lebedev-302)
Angular grid pruning method      GridPruning ... 4 (adaptive)
Weight generation scheme         WeightScheme... Becke
Basis function cutoff            BFCut       ... 1.0000e-11
Integration weight cutoff        WCut        ... 1.0000e-14
Angular grids for H and He will be reduced by one unit
Partially contracted basis set               ... off
Rotationally invariant grid construction     ... off

Total number of grid points                  ...    89772
Total number of batches                      ...     1408
Average number of points per batch           ...       63
Average number of grid points per atom       ...    11222
Time for grid setup =    1.273 sec

--------------
SCF ITERATIONS
--------------
ITER       Energy         Delta-E        Max-DP      RMS-DP      [F,P]     Damp
               ***  Starting incremental Fock matrix formation  ***
  0 -13122.0865930064   0.000000000000 0.08148493  0.00160133  0.1712227 0.7000
  1 -13122.2580936977  -0.171500691285 0.05436237  0.00088166  0.0665474 0.7000
                               ***Turning on DIIS***
  2 -13122.3136257910  -0.055532093374 0.07816230  0.00148295  0.0470939 0.0000
  3 -13122.3939442629  -0.080318471906 0.01094284  0.00019874  0.1154831 0.7000
  4 -13122.4174933643  -0.023549101368 0.04137401  0.00071035  0.0909645 0.0000
  5 -13122.4602221634  -0.042728799051 0.01135737  0.00017116  0.0273920 0.0000
  6 -13122.4636477763  -0.003425612915 0.00433682  0.00007967  0.0083689 0.0000
  7 -13122.4638651972  -0.000217420871 0.00537837  0.00006129  0.0061444 0.0000
  8 -13122.4641224777  -0.000257280528 0.00074250  0.00001612  0.0016786 0.0000
  9 -13122.4641399544  -0.000017476717 0.00125809  0.00003128  0.0004468 0.0000
 10 -13122.4641441345  -0.000004180089 0.00063259  0.00000736  0.0004806 0.0000
 11 -13122.4641456307  -0.000001496250 0.00051562  0.00000504  0.0000850 0.0000
 12 -13122.4641457574  -0.000000126687 0.00019863  0.00000211  0.0000390 0.0000
 13 -13122.4641459233  -0.000000165901 0.00005192  0.00000060  0.0000502 0.0000
 14 -13122.4641459618  -0.000000038499 0.00001198  0.00000010  0.0000071 0.0000
 15 -13122.4641458488   0.000000113047 0.00000532  0.00000004  0.0000030 0.0000
 16 -13122.4641458796  -0.000000030797 0.00000275  0.00000003  0.0000026 0.0000
 17 -13122.4641458937  -0.000000014126 0.00000103  0.00000001  0.0000021 0.0000
                            ***DIIS convergence achieved***

               *****************************************************
               *                     SUCCESS                       *
               *           SCF CONVERGED AFTER  18 CYCLES          *
               *****************************************************


----------------
TOTAL SCF ENERGY
----------------

Total Energy       :       -13122.46414592 Eh         -357080.40303 eV

Components:
Nuclear Repulsion  :         3802.75373701 Eh          103478.18991 eV
Electronic Energy  :       -16925.21788293 Eh         -460558.59294 eV
One Electron Energy:       -25898.85330211 Eh         -704743.62682 eV
Two Electron Energy:         8973.63541919 Eh          244185.03388 eV

Virial components:
Potential Energy   :       -26224.61008366 Eh         -713607.91950 eV
Kinetic Energy     :        13102.14593774 Eh          356527.51647 eV
Virial Ratio       :            2.00155075


DFT components:
N(Alpha)           :      116.000034380740 electrons
N(Beta)            :      116.000034380740 electrons
N(Total)           :      232.000068761480 electrons
E(X)               :     -524.321059351564 Eh       
E(C)               :      -10.903141179308 Eh       
E(XC)              :     -535.224200530872 Eh       
DFET-embed. en.    :        0.000000000000 Eh       

---------------
SCF CONVERGENCE
---------------

  Last Energy change         ...   -2.6888e-08  Tolerance :   1.0000e-08
  Last MAX-Density change    ...    1.3807e-06  Tolerance :   1.0000e-07
  Last RMS-Density change    ...    1.1792e-08  Tolerance :   5.0000e-09
  Last DIIS Error            ...    3.6458e-07  Tolerance :   5.0000e-07

             **** THE GBW FILE WAS UPDATED (CU8_Td_0.gbw) ****
             **** DENSITY CU8_Td_0.scfp WAS UPDATED ****
             **** ENERGY FILE WAS UPDATED (CU8_Td_0.en.tmp) ****
             **** THE GBW FILE WAS UPDATED (CU8_Td_0.gbw) ****
             **** DENSITY CU8_Td_0.scfp WAS UPDATED ****
----------------
ORBITAL ENERGIES
----------------

  NO   OCC          E(Eh)            E(eV) 
   0   2.0000    -321.503274     -8748.5489 
   1   2.0000    -321.503274     -8748.5489 
   2   2.0000    -321.503274     -8748.5488 
   3   2.0000    -321.503270     -8748.5487 
   4   2.0000    -321.495220     -8748.3297 
   5   2.0000    -321.495220     -8748.3297 
   6   2.0000    -321.495220     -8748.3297 
   7   2.0000    -321.495218     -8748.3296 
   8   2.0000     -38.269279     -1041.3600 
   9   2.0000     -38.269279     -1041.3600 
  10   2.0000     -38.269279     -1041.3600 
  11   2.0000     -38.269252     -1041.3593 
  12   2.0000     -38.260080     -1041.1097 
  13   2.0000     -38.260080     -1041.1097 
  14   2.0000     -38.260080     -1041.1097 
  15   2.0000     -38.260066     -1041.1093 
  16   2.0000     -33.560392      -913.2247 
  17   2.0000     -33.560392      -913.2247 
  18   2.0000     -33.560391      -913.2247 
  19   2.0000     -33.560379      -913.2243 
  20   2.0000     -33.560210      -913.2197 
  21   2.0000     -33.560210      -913.2197 
  22   2.0000     -33.560210      -913.2197 
  23   2.0000     -33.560201      -913.2195 
  24   2.0000     -33.560201      -913.2195 
  25   2.0000     -33.560201      -913.2195 
  26   2.0000     -33.560200      -913.2195 
  27   2.0000     -33.560200      -913.2195 
  28   2.0000     -33.551160      -912.9735 
  29   2.0000     -33.551160      -912.9735 
  30   2.0000     -33.551160      -912.9735 
  31   2.0000     -33.551156      -912.9734 
  32   2.0000     -33.551108      -912.9721 
  33   2.0000     -33.551108      -912.9721 
  34   2.0000     -33.551108      -912.9721 
  35   2.0000     -33.551108      -912.9721 
  36   2.0000     -33.551108      -912.9721 
  37   2.0000     -33.551108      -912.9721 
  38   2.0000     -33.551104      -912.9719 
  39   2.0000     -33.551104      -912.9719 
  40   2.0000      -4.099113      -111.5425 
  41   2.0000      -4.099085      -111.5418 
  42   2.0000      -4.099085      -111.5418 
  43   2.0000      -4.099085      -111.5418 
  44   2.0000      -4.090165      -111.2990 
  45   2.0000      -4.090165      -111.2990 
  46   2.0000      -4.090165      -111.2990 
  47   2.0000      -4.090163      -111.2990 
  48   2.0000      -2.634188       -71.6799 
  49   2.0000      -2.634188       -71.6799 
  50   2.0000      -2.634188       -71.6799 
  51   2.0000      -2.634188       -71.6799 
  52   2.0000      -2.634188       -71.6799 
  53   2.0000      -2.634052       -71.6762 
  54   2.0000      -2.634052       -71.6762 
  55   2.0000      -2.634052       -71.6762 
  56   2.0000      -2.633511       -71.6615 
  57   2.0000      -2.633140       -71.6514 
  58   2.0000      -2.633140       -71.6514 
  59   2.0000      -2.633140       -71.6514 
  60   2.0000      -2.626049       -71.4584 
  61   2.0000      -2.626042       -71.4582 
  62   2.0000      -2.626042       -71.4582 
  63   2.0000      -2.626042       -71.4582 
  64   2.0000      -2.624729       -71.4225 
  65   2.0000      -2.624729       -71.4225 
  66   2.0000      -2.624728       -71.4225 
  67   2.0000      -2.624726       -71.4224 
  68   2.0000      -2.624726       -71.4224 
  69   2.0000      -2.624726       -71.4224 
  70   2.0000      -2.624723       -71.4224 
  71   2.0000      -2.624723       -71.4224 
  72   2.0000      -0.295474        -8.0402 
  73   2.0000      -0.239240        -6.5100 
  74   2.0000      -0.239240        -6.5100 
  75   2.0000      -0.239240        -6.5100 
  76   2.0000      -0.227027        -6.1777 
  77   2.0000      -0.223749        -6.0885 
  78   2.0000      -0.223749        -6.0885 
  79   2.0000      -0.223749        -6.0885 
  80   2.0000      -0.219173        -5.9640 
  81   2.0000      -0.219173        -5.9640 
  82   2.0000      -0.213550        -5.8110 
  83   2.0000      -0.213550        -5.8110 
  84   2.0000      -0.213550        -5.8110 
  85   2.0000      -0.210632        -5.7316 
  86   2.0000      -0.210632        -5.7316 
  87   2.0000      -0.210632        -5.7316 
  88   2.0000      -0.209641        -5.7046 
  89   2.0000      -0.209641        -5.7046 
  90   2.0000      -0.199842        -5.4380 
  91   2.0000      -0.199842        -5.4380 
  92   2.0000      -0.199842        -5.4380 
  93   2.0000      -0.199142        -5.4189 
  94   2.0000      -0.198631        -5.4050 
  95   2.0000      -0.198631        -5.4050 
  96   2.0000      -0.198631        -5.4050 
  97   2.0000      -0.198119        -5.3911 
  98   2.0000      -0.198119        -5.3911 
  99   2.0000      -0.195331        -5.3152 
 100   2.0000      -0.195331        -5.3152 
 101   2.0000      -0.195331        -5.3152 
 102   2.0000      -0.193946        -5.2775 
 103   2.0000      -0.193946        -5.2775 
 104   2.0000      -0.193946        -5.2775 
 105   2.0000      -0.191276        -5.2049 
 106   2.0000      -0.191276        -5.2049 
 107   2.0000      -0.191276        -5.2049 
 108   2.0000      -0.190930        -5.1955 
 109   2.0000      -0.190930        -5.1955 
 110   2.0000      -0.189817        -5.1652 
 111   2.0000      -0.189817        -5.1652 
 112   2.0000      -0.189817        -5.1652 
 113   2.0000      -0.175831        -4.7846 
 114   2.0000      -0.175831        -4.7846 
 115   2.0000      -0.175831        -4.7846 
 116   0.0000      -0.107598        -2.9279 
 117   0.0000      -0.107598        -2.9279 
 118   0.0000      -0.107598        -2.9279 
 119   0.0000      -0.104198        -2.8354 
 120   0.0000      -0.058130        -1.5818 
 121   0.0000      -0.058130        -1.5818 
 122   0.0000      -0.027097        -0.7373 
 123   0.0000      -0.027097        -0.7373 
 124   0.0000      -0.027097        -0.7373 
 125   0.0000      -0.026683        -0.7261 
 126   0.0000       0.003990         0.1086 
 127   0.0000       0.003990         0.1086 
 128   0.0000       0.003990         0.1086 
 129   0.0000       0.050056         1.3621 
 130   0.0000       0.050056         1.3621 
 131   0.0000       0.050056         1.3621 
 132   0.0000       0.077261         2.1024 
 133   0.0000       0.084120         2.2890 
 134   0.0000       0.084120         2.2890 
 135   0.0000       0.084120         2.2890 
 136   0.0000       0.099470         2.7067 
 137   0.0000       0.099470         2.7067 
 138   0.0000       0.099470         2.7067 
 139   0.0000       0.129195         3.5156 
 140   0.0000       0.129195         3.5156 
 141   0.0000       0.138608         3.7717 
 142   0.0000       0.138608         3.7717 
 143   0.0000       0.138608         3.7717 
 144   0.0000       0.159982         4.3533 
 145   0.0000       0.171434         4.6650 
 146   0.0000       0.171434         4.6650 
 147   0.0000       0.173437         4.7195 
 148   0.0000       0.173437         4.7195 
 149   0.0000       0.173437         4.7195 
 150   0.0000       0.185473         5.0470 
 151   0.0000       0.209025         5.6879 
 152   0.0000       0.209025         5.6879 
 153   0.0000       0.209025         5.6879 
 154   0.0000       0.217801         5.9267 
 155   0.0000       0.217801         5.9267 
 156   0.0000       0.217801         5.9267 
 157   0.0000       0.233592         6.3564 
 158   0.0000       0.233592         6.3564 
 159   0.0000       0.259735         7.0678 
 160   0.0000       0.259735         7.0678 
 161   0.0000       0.259735         7.0678 
 162   0.0000       0.269538         7.3345 
 163   0.0000       0.269538         7.3345 
 164   0.0000       0.269538         7.3345 
 165   0.0000       0.291127         7.9220 
 166   0.0000       0.291127         7.9220 
 167   0.0000       0.291127         7.9220 
 168   0.0000       0.318144         8.6571 
 169   0.0000       0.322081         8.7643 
 170   0.0000       0.322081         8.7643 
 171   0.0000       0.322081         8.7643 
 172   0.0000       0.326696         8.8899 
 173   0.0000       0.336530         9.1575 
 174   0.0000       0.336530         9.1575 
 175   0.0000       0.347459         9.4548 
 176   0.0000       0.347459         9.4548 
 177   0.0000       0.347459         9.4548 
 178   0.0000       0.371890        10.1196 
 179   0.0000       0.371890        10.1196 
 180   0.0000       0.371890        10.1196 
 181   0.0000       0.377417        10.2700 
 182   0.0000       0.377417        10.2701 
 183   0.0000       0.377418        10.2701 
 184   0.0000       0.402479        10.9520 
 185   0.0000       0.402479        10.9520 
 186   0.0000       0.402479        10.9520 
 187   0.0000       0.404171        10.9981 
 188   0.0000       0.404171        10.9981 
 189   0.0000       0.474967        12.9245 
 190   0.0000       0.474967        12.9245 
 191   0.0000       0.474967        12.9245 
 192   0.0000       0.707446        19.2506 
 193   0.0000       0.707446        19.2506 
 194   0.0000       0.707446        19.2506 
 195   0.0000       0.776582        21.1319 
 196   0.0000       0.776582        21.1319 
 197   0.0000       0.780222        21.2309 
 198   0.0000       0.780222        21.2309 
 199   0.0000       0.780222        21.2309 
 200   0.0000       0.796219        21.6662 
 201   0.0000       0.796219        21.6662 
 202   0.0000       0.808489        22.0001 
 203   0.0000       0.862088        23.4586 
 204   0.0000       0.862088        23.4586 
 205   0.0000       0.862088        23.4586 
 206   0.0000       0.878467        23.9043 
 207   0.0000       0.878467        23.9043 
 208   0.0000       0.878467        23.9043 
 209   0.0000       0.887400        24.1474 
 210   0.0000       0.887400        24.1474 
 211   0.0000       0.887400        24.1474 
 212   0.0000       0.908136        24.7116 
 213   0.0000       0.908136        24.7116 
 214   0.0000       0.909738        24.7552 
 215   0.0000       0.937899        25.5215 
 216   0.0000       0.937899        25.5215 
 217   0.0000       0.937899        25.5215 
 218   0.0000       1.057994        28.7895 
 219   0.0000       1.057994        28.7895 
 220   0.0000       1.057994        28.7895 
 221   0.0000       1.077014        29.3070 
 222   0.0000       1.077014        29.3070 
 223   0.0000       1.077014        29.3070 
 224   0.0000       1.128032        30.6953 
 225   0.0000       1.128032        30.6953 
 226   0.0000       1.154640        31.4194 
 227   0.0000       1.154640        31.4194 
 228   0.0000       1.154640        31.4194 
 229   0.0000       1.154761        31.4226 
 230   0.0000       1.154761        31.4226 
 231   0.0000       1.154761        31.4226 
 232   0.0000       2.114511        57.5388 
 233   0.0000       2.114511        57.5388 
 234   0.0000       2.166519        58.9540 
 235   0.0000       2.166519        58.9540 
 236   0.0000       2.166519        58.9540 
 237   0.0000       2.190540        59.6076 
 238   0.0000       2.190540        59.6076 
 239   0.0000       2.190540        59.6076 
 240   0.0000       2.195031        59.7298 
 241   0.0000       2.218964        60.3811 
 242   0.0000       2.218964        60.3811 
 243   0.0000       2.218964        60.3811 
 244   0.0000       2.234525        60.8045 
 245   0.0000       2.289854        62.3101 
 246   0.0000       2.289854        62.3101 
 247   0.0000       2.289854        62.3101 
 248   0.0000       2.343042        63.7574 
 249   0.0000       2.343042        63.7574 
 250   0.0000       2.343042        63.7574 
 251   0.0000       2.379399        64.7467 
 252   0.0000       2.379399        64.7467 
 253   0.0000       2.476998        67.4025 
 254   0.0000       2.476998        67.4025 
 255   0.0000       2.476998        67.4025 
 256   0.0000       2.786861        75.8343 
 257   0.0000       3.172788        86.3360 
 258   0.0000       3.172788        86.3360 
 259   0.0000       3.172788        86.3360 
 260   0.0000       3.216522        87.5260 
 261   0.0000       3.230103        87.8956 
 262   0.0000       3.230103        87.8956 
 263   0.0000       3.230103        87.8956 
 264   0.0000       3.496229        95.1372 
 265   0.0000       3.496229        95.1372 
 266   0.0000       3.496229        95.1372 
 267   0.0000       3.500511        95.2537 
 268   0.0000       3.500511        95.2537 
 269   0.0000       3.547160        96.5231 
 270   0.0000       3.547160        96.5231 
 271   0.0000       3.547160        96.5231 
 272   0.0000       3.566427        97.0474 
 273   0.0000       3.566427        97.0474 
 274   0.0000       3.571458        97.1843 
 275   0.0000       3.571458        97.1843 
 276   0.0000       3.571458        97.1843 
 277   0.0000       3.578427        97.3739 
 278   0.0000       3.583880        97.5223 
 279   0.0000       3.583880        97.5223 
 280   0.0000       3.583880        97.5223 
 281   0.0000       3.623416        98.5982 
 282   0.0000       3.623416        98.5982 
 283   0.0000       3.643214        99.1369 
 284   0.0000       3.643214        99.1369 
 285   0.0000       3.643214        99.1369 
 286   0.0000       3.675624       100.0188 
 287   0.0000       3.696756       100.5938 
 288   0.0000       3.696756       100.5938 
 289   0.0000       3.696756       100.5938 
 290   0.0000       3.712810       101.0307 
 291   0.0000       3.712811       101.0307 
 292   0.0000       3.712811       101.0307 
 293   0.0000       3.760525       102.3291 
 294   0.0000       3.760525       102.3291 
 295   0.0000       3.760525       102.3291 
 296   0.0000       3.778747       102.8249 
 297   0.0000       3.778747       102.8249 
 298   0.0000       3.859424       105.0203 
 299   0.0000       3.859424       105.0203 
 300   0.0000       3.859424       105.0203 
 301   0.0000       4.024929       109.5239 
 302   0.0000       4.024929       109.5239 
 303   0.0000       4.024929       109.5239 
 304   0.0000       5.651608       153.7881 
 305   0.0000       5.652464       153.8114 
 306   0.0000       5.652464       153.8114 
 307   0.0000       5.652464       153.8114 
 308   0.0000       5.652495       153.8122 
 309   0.0000       5.652495       153.8122 
 310   0.0000       5.652495       153.8122 
 311   0.0000       5.652744       153.8190 
 312   0.0000       5.652794       153.8204 
 313   0.0000       5.652794       153.8204 
 314   0.0000       5.652794       153.8204 
 315   0.0000       5.652893       153.8231 
 316   0.0000       5.652893       153.8231 
 317   0.0000       5.653235       153.8324 
 318   0.0000       5.653235       153.8324 
 319   0.0000       5.653235       153.8324 
 320   0.0000       5.655296       153.8884 
 321   0.0000       5.655296       153.8884 
 322   0.0000       5.655667       153.8985 
 323   0.0000       5.655667       153.8985 
 324   0.0000       5.655667       153.8985 
 325   0.0000       5.657429       153.9465 
 326   0.0000       5.657429       153.9465 
 327   0.0000       5.657429       153.9465 
 328   0.0000       5.658857       153.9853 
 329   0.0000       5.658857       153.9853 
 330   0.0000       5.658857       153.9853 
 331   0.0000       5.659714       154.0086 
 332   0.0000       5.659714       154.0086 
 333   0.0000       5.659714       154.0086 
 334   0.0000       5.659728       154.0090 
 335   0.0000       5.659728       154.0090 
 336   0.0000       5.659728       154.0090 
 337   0.0000       5.659911       154.0140 
 338   0.0000       5.660714       154.0358 
 339   0.0000       5.660738       154.0365 
 340   0.0000       5.661404       154.0546 
 341   0.0000       5.661404       154.0546 
 342   0.0000       5.661404       154.0546 
 343   0.0000       5.661542       154.0584 
 344   0.0000       5.661542       154.0584 
 345   0.0000       5.661542       154.0584 
 346   0.0000       5.662002       154.0709 
 347   0.0000       5.662002       154.0709 
 348   0.0000       5.662321       154.0796 
 349   0.0000       5.662414       154.0821 
 350   0.0000       5.662414       154.0821 
 351   0.0000       5.662414       154.0821 
 352   0.0000       5.663340       154.1073 
 353   0.0000       5.663340       154.1073 
 354   0.0000       5.663340       154.1073 
 355   0.0000       5.666199       154.1851 
 356   0.0000       5.666199       154.1851 
 357   0.0000       5.667616       154.2237 
 358   0.0000       5.667616       154.2237 
 359   0.0000       5.667616       154.2237 

                    ********************************
                    * MULLIKEN POPULATION ANALYSIS *
                    ********************************

-----------------------
MULLIKEN ATOMIC CHARGES
-----------------------
   0 Cu:    0.085430
   1 Cu:    0.085430
   2 Cu:    0.085430
   3 Cu:   -0.085430
   4 Cu:    0.085429
   5 Cu:   -0.085429
   6 Cu:   -0.085430
   7 Cu:   -0.085429
Sum of atomic charges:    0.0000000

--------------------------------
MULLIKEN REDUCED ORBITAL CHARGES
--------------------------------
  0 Cus       :     6.838003  s :     6.838003
      pz      :     4.084500  p :    12.253501
      px      :     4.084500
      py      :     4.084500
      dz2     :     1.962587  d :     9.823043
      dxz     :     1.965957
      dyz     :     1.965957
      dx2y2   :     1.962587
      dxy     :     1.965957
      f0      :     0.000004  f :     0.000023
      f+1     :     0.000003
      f-1     :     0.000003
      f+2     :     0.000003
      f-2     :     0.000003
      f+3     :     0.000003
      f-3     :     0.000003
  1 Cus       :     6.838003  s :     6.838003
      pz      :     4.084500  p :    12.253501
      px      :     4.084500
      py      :     4.084500
      dz2     :     1.962587  d :     9.823043
      dxz     :     1.965957
      dyz     :     1.965957
      dx2y2   :     1.962587
      dxy     :     1.965957
      f0      :     0.000004  f :     0.000023
      f+1     :     0.000003
      f-1     :     0.000003
      f+2     :     0.000003
      f-2     :     0.000003
      f+3     :     0.000003
      f-3     :     0.000003
  2 Cus       :     6.838003  s :     6.838003
      pz      :     4.084500  p :    12.253501
      px      :     4.084500
      py      :     4.084500
      dz2     :     1.962587  d :     9.823043
      dxz     :     1.965957
      dyz     :     1.965957
      dx2y2   :     1.962587
      dxy     :     1.965957
      f0      :     0.000004  f :     0.000023
      f+1     :     0.000003
      f-1     :     0.000003
      f+2     :     0.000003
      f-2     :     0.000003
      f+3     :     0.000003
      f-3     :     0.000003
  3 Cus       :     7.113947  s :     7.113947
      pz      :     4.031528  p :    12.094583
      px      :     4.031528
      py      :     4.031528
      dz2     :     1.958750  d :     9.876876
      dxz     :     1.986459
      dyz     :     1.986459
      dx2y2   :     1.958750
      dxy     :     1.986459
      f0      :     0.000003  f :     0.000024
      f+1     :     0.000003
      f-1     :     0.000003
      f+2     :     0.000003
      f-2     :     0.000003
      f+3     :     0.000003
      f-3     :     0.000003
  4 Cus       :     6.838003  s :     6.838003
      pz      :     4.084500  p :    12.253501
      px      :     4.084500
      py      :     4.084500
      dz2     :     1.962587  d :     9.823043
      dxz     :     1.965957
      dyz     :     1.965957
      dx2y2   :     1.962587
      dxy     :     1.965957
      f0      :     0.000004  f :     0.000023
      f+1     :     0.000003
      f-1     :     0.000003
      f+2     :     0.000003
      f-2     :     0.000003
      f+3     :     0.000003
      f-3     :     0.000003
  5 Cus       :     7.113946  s :     7.113946
      pz      :     4.031528  p :    12.094583
      px      :     4.031528
      py      :     4.031528
      dz2     :     1.958750  d :     9.876876
      dxz     :     1.986459
      dyz     :     1.986459
      dx2y2   :     1.958750
      dxy     :     1.986459
      f0      :     0.000003  f :     0.000024
      f+1     :     0.000003
      f-1     :     0.000003
      f+2     :     0.000003
      f-2     :     0.000003
      f+3     :     0.000003
      f-3     :     0.000003
  6 Cus       :     7.113947  s :     7.113947
      pz      :     4.031528  p :    12.094583
      px      :     4.031528
      py      :     4.031528
      dz2     :     1.958750  d :     9.876876
      dxz     :     1.986459
      dyz     :     1.986459
      dx2y2   :     1.958750
      dxy     :     1.986459
      f0      :     0.000003  f :     0.000024
      f+1     :     0.000003
      f-1     :     0.000003
      f+2     :     0.000003
      f-2     :     0.000003
      f+3     :     0.000003
      f-3     :     0.000003
  7 Cus       :     7.113946  s :     7.113946
      pz      :     4.031528  p :    12.094583
      px      :     4.031528
      py      :     4.031528
      dz2     :     1.958750  d :     9.876876
      dxz     :     1.986459
      dyz     :     1.986459
      dx2y2   :     1.958750
      dxy     :     1.986459
      f0      :     0.000003  f :     0.000024
      f+1     :     0.000003
      f-1     :     0.000003
      f+2     :     0.000003
      f-2     :     0.000003
      f+3     :     0.000003
      f-3     :     0.000003


                     *******************************
                     * LOEWDIN POPULATION ANALYSIS *
                     *******************************

----------------------
LOEWDIN ATOMIC CHARGES
----------------------
   0 Cu:   -0.025162
   1 Cu:   -0.025161
   2 Cu:   -0.025161
   3 Cu:    0.025161
   4 Cu:   -0.025162
   5 Cu:    0.025162
   6 Cu:    0.025161
   7 Cu:    0.025161

-------------------------------
LOEWDIN REDUCED ORBITAL CHARGES
-------------------------------
  0 Cus       :     6.632564  s :     6.632564
      pz      :     4.101497  p :    12.304491
      px      :     4.101497
      py      :     4.101497
      dz2     :     2.050337  d :    10.088078
      dxz     :     1.995802
      dyz     :     1.995802
      dx2y2   :     2.050337
      dxy     :     1.995802
      f0      :     0.000005  f :     0.000029
      f+1     :     0.000004
      f-1     :     0.000004
      f+2     :     0.000004
      f-2     :     0.000003
      f+3     :     0.000004
      f-3     :     0.000004
  1 Cus       :     6.632564  s :     6.632564
      pz      :     4.101497  p :    12.304490
      px      :     4.101497
      py      :     4.101497
      dz2     :     2.050337  d :    10.088078
      dxz     :     1.995801
      dyz     :     1.995801
      dx2y2   :     2.050337
      dxy     :     1.995801
      f0      :     0.000005  f :     0.000029
      f+1     :     0.000004
      f-1     :     0.000004
      f+2     :     0.000004
      f-2     :     0.000003
      f+3     :     0.000004
      f-3     :     0.000004
  2 Cus       :     6.632564  s :     6.632564
      pz      :     4.101497  p :    12.304490
      px      :     4.101497
      py      :     4.101497
      dz2     :     2.050337  d :    10.088078
      dxz     :     1.995801
      dyz     :     1.995801
      dx2y2   :     2.050337
      dxy     :     1.995801
      f0      :     0.000005  f :     0.000029
      f+1     :     0.000004
      f-1     :     0.000004
      f+2     :     0.000004
      f-2     :     0.000003
      f+3     :     0.000004
      f-3     :     0.000004
  3 Cus       :     6.848323  s :     6.848323
      pz      :     4.035598  p :    12.106793
      px      :     4.035598
      py      :     4.035598
      dz2     :     1.994869  d :    10.019695
      dxz     :     2.009986
      dyz     :     2.009986
      dx2y2   :     1.994869
      dxy     :     2.009986
      f0      :     0.000004  f :     0.000028
      f+1     :     0.000004
      f-1     :     0.000004
      f+2     :     0.000004
      f-2     :     0.000003
      f+3     :     0.000004
      f-3     :     0.000004
  4 Cus       :     6.632564  s :     6.632564
      pz      :     4.101497  p :    12.304491
      px      :     4.101497
      py      :     4.101497
      dz2     :     2.050337  d :    10.088078
      dxz     :     1.995801
      dyz     :     1.995801
      dx2y2   :     2.050337
      dxy     :     1.995802
      f0      :     0.000005  f :     0.000029
      f+1     :     0.000004
      f-1     :     0.000004
      f+2     :     0.000004
      f-2     :     0.000003
      f+3     :     0.000004
      f-3     :     0.000004
  5 Cus       :     6.848322  s :     6.848322
      pz      :     4.035598  p :    12.106793
      px      :     4.035598
      py      :     4.035598
      dz2     :     1.994869  d :    10.019695
      dxz     :     2.009986
      dyz     :     2.009986
      dx2y2   :     1.994869
      dxy     :     2.009986
      f0      :     0.000004  f :     0.000028
      f+1     :     0.000004
      f-1     :     0.000004
      f+2     :     0.000004
      f-2     :     0.000003
      f+3     :     0.000004
      f-3     :     0.000004
  6 Cus       :     6.848323  s :     6.848323
      pz      :     4.035598  p :    12.106793
      px      :     4.035598
      py      :     4.035598
      dz2     :     1.994869  d :    10.019695
      dxz     :     2.009986
      dyz     :     2.009986
      dx2y2   :     1.994869
      dxy     :     2.009986
      f0      :     0.000004  f :     0.000028
      f+1     :     0.000004
      f-1     :     0.000004
      f+2     :     0.000004
      f-2     :     0.000003
      f+3     :     0.000004
      f-3     :     0.000004
  7 Cus       :     6.848322  s :     6.848322
      pz      :     4.035598  p :    12.106793
      px      :     4.035598
      py      :     4.035598
      dz2     :     1.994869  d :    10.019695
      dxz     :     2.009986
      dyz     :     2.009986
      dx2y2   :     1.994869
      dxy     :     2.009986
      f0      :     0.000004  f :     0.000028
      f+1     :     0.000004
      f-1     :     0.000004
      f+2     :     0.000004
      f-2     :     0.000003
      f+3     :     0.000004
      f-3     :     0.000004


                      *****************************
                      * MAYER POPULATION ANALYSIS *
                      *****************************

  NA   - Mulliken gross atomic population
  ZA   - Total nuclear charge
  QA   - Mulliken gross atomic charge
  VA   - Mayer's total valence
  BVA  - Mayer's bonded valence
  FA   - Mayer's free valence

  ATOM       NA         ZA         QA         VA         BVA        FA
  0 Cu    28.9146    29.0000     0.0854     1.6846     1.6846    -0.0000
  1 Cu    28.9146    29.0000     0.0854     1.6846     1.6846    -0.0000
  2 Cu    28.9146    29.0000     0.0854     1.6846     1.6846     0.0000
  3 Cu    29.0854    29.0000    -0.0854     1.2997     1.2997     0.0000
  4 Cu    28.9146    29.0000     0.0854     1.6846     1.6846    -0.0000
  5 Cu    29.0854    29.0000    -0.0854     1.2997     1.2997     0.0000
  6 Cu    29.0854    29.0000    -0.0854     1.2997     1.2997     0.0000
  7 Cu    29.0854    29.0000    -0.0854     1.2997     1.2997     0.0000

  Mayer bond orders larger than 0.100000
B(  0-Cu,  1-Cu) :   0.1643 B(  0-Cu,  2-Cu) :   0.1643 B(  0-Cu,  3-Cu) :   0.3526 
B(  0-Cu,  4-Cu) :   0.1643 B(  0-Cu,  5-Cu) :   0.3526 B(  0-Cu,  6-Cu) :   0.3526 
B(  0-Cu,  7-Cu) :   0.1340 B(  1-Cu,  2-Cu) :   0.1643 B(  1-Cu,  3-Cu) :   0.1340 
B(  1-Cu,  4-Cu) :   0.1643 B(  1-Cu,  5-Cu) :   0.3526 B(  1-Cu,  6-Cu) :   0.3526 
B(  1-Cu,  7-Cu) :   0.3526 B(  2-Cu,  3-Cu) :   0.3526 B(  2-Cu,  4-Cu) :   0.1643 
B(  2-Cu,  5-Cu) :   0.3526 B(  2-Cu,  6-Cu) :   0.1340 B(  2-Cu,  7-Cu) :   0.3526 
B(  3-Cu,  4-Cu) :   0.3526 B(  4-Cu,  5-Cu) :   0.1340 B(  4-Cu,  6-Cu) :   0.3526 
B(  4-Cu,  7-Cu) :   0.3526 

-------
TIMINGS
-------

Total SCF time: 0 days 0 hours 0 min 11 sec 

Total time                  ....      11.363 sec
Sum of individual times     ....      10.629 sec  ( 93.5%)

Fock matrix formation       ....       7.483 sec  ( 65.9%)
  Split-RI-J                ....       3.669 sec  ( 49.0% of F)
  XC integration            ....       3.640 sec  ( 48.6% of F)
    Basis function eval.    ....       0.624 sec  ( 17.2% of XC)
    Density eval.           ....       0.685 sec  ( 18.8% of XC)
    XC-Functional eval.     ....       0.087 sec  (  2.4% of XC)
    XC-Potential eval.      ....       0.609 sec  ( 16.7% of XC)
Diagonalization             ....       0.807 sec  (  7.1%)
Density matrix formation    ....       0.052 sec  (  0.5%)
Population analysis         ....       0.037 sec  (  0.3%)
Initial guess               ....       0.253 sec  (  2.2%)
Orbital Transformation      ....       0.000 sec  (  0.0%)
Orbital Orthonormalization  ....       0.000 sec  (  0.0%)
DIIS solution               ....       0.468 sec  (  4.1%)
Grid generation             ....       1.530 sec  ( 13.5%)

Maximum memory used throughout the entire SCF-calculation: 36.1 MB


-------------------------------------------------------------------------------
                          DFT DISPERSION CORRECTION                            
                                                                               
                              DFTD3 V3.1  Rev 1                                
                          USING Becke-Johnson damping                          
-------------------------------------------------------------------------------
The PBE functional is recognized
Active option DFTDOPT                   ...         4   

molecular C6(AA) [au] = 11240.638246 


            DFT-D V3
 parameters
 s6 scaling factor         :     1.0000 
 a1 scaling factor         :     0.4289 
 s8 scaling factor         :     0.7875 
 a2 scaling factor         :     4.4407 
 ad hoc parameters k1-k3   :    16.0000     1.3333    -4.0000 

 Edisp/kcal,au: -13.657263168849  -0.021764231899 
 E6   /kcal   :  -7.001332561 
 E8   /kcal   :  -6.655930608 
 % E8         :  48.735464242 

-------------------------   ----------------
Dispersion correction           -0.021764232
-------------------------   ----------------


-------------------------   --------------------
FINAL SINGLE POINT ENERGY    -13122.485910152487
-------------------------   --------------------

No protocol specified


           ************************************************************
           *        Program running with 16 parallel MPI-processes    *
           *              working on a common directory               *
           ************************************************************
------------------------------------------------------------------------------
                         ORCA SCF GRADIENT CALCULATION
------------------------------------------------------------------------------

Gradient of the Kohn-Sham DFT energy:
Kohn-Sham wavefunction type      ... RKS
Hartree-Fock exchange scaling    ...    0.000
Number of operators              ...    1
Number of atoms                  ...    8
Basis set dimensions             ...  360
Integral neglect threshold       ... 2.5e-11
Integral primitive cutoff        ... 2.5e-12
SHARK Integral package           ... ON

Nuc. rep. gradient       (SHARK) ... done (  0.0 sec)
HCore & Overlap gradient (SHARK) ... done (  0.1 sec)
RI-J gradient            (SHARK) ... done (  1.1 sec)
Exchange-correlation gradient    ... done
Dispersion correction            ... done

------------------
CARTESIAN GRADIENT
------------------

   1   Cu  :   -0.019156364    0.019156377    0.019156394
   2   Cu  :   -0.019156385   -0.019156402   -0.019156389
   3   Cu  :    0.019156387    0.019156391   -0.019156385
   4   Cu  :    0.017448523    0.017448535    0.017448543
   5   Cu  :    0.019156366   -0.019156377    0.019156392
   6   Cu  :   -0.017448550    0.017448558   -0.017448545
   7   Cu  :   -0.017448522   -0.017448529    0.017448539
   8   Cu  :    0.017448545   -0.017448553   -0.017448548

Difference to translation invariance:
           :   -0.0000000000   -0.0000000000   -0.0000000000

Difference to rotation invariance:
           :    0.0000000103    0.0000000121   -0.0000000007

Norm of the cartesian gradient     ...    0.0897609242
RMS gradient                       ...    0.0183223719
MAX gradient                       ...    0.0191564022

-------
TIMINGS
-------

Total SCF gradient time            ...        2.783 sec

One electron gradient       ....       0.066 sec  (  2.4%)
RI-J Coulomb gradient       ....       1.140 sec  ( 41.0%)
XC gradient                 ....       1.018 sec  ( 36.6%)

Maximum memory used throughout the entire SCFGRAD-calculation: 34.7 MB

                            ***************************************
                            *     ORCA property calculations      *
                            ***************************************

                                    ---------------------
                                    Active property flags
                                    ---------------------
   (+) Dipole Moment


------------------------------------------------------------------------------
                       ORCA ELECTRIC PROPERTIES CALCULATION
------------------------------------------------------------------------------

Dipole Moment Calculation                       ... on
Quadrupole Moment Calculation                   ... off
Polarizability Calculation                      ... off
GBWName                                         ... CU8_Td_0.gbw
Electron density                                ... CU8_Td_0.scfp
The origin for moment calculation is the CENTER OF MASS  = ( 0.000000,  0.000000  0.000000)

-------------
DIPOLE MOMENT
-------------
                                X             Y             Z
Electronic contribution:     -0.00000       0.00000      -0.00000
Nuclear contribution   :      0.00000      -0.00000       0.00000
                        -----------------------------------------
Total Dipole Moment    :     -0.00000       0.00000      -0.00000
                        -----------------------------------------
Magnitude (a.u.)       :      0.00000
Magnitude (Debye)      :      0.00001



--------------------
Rotational spectrum 
--------------------
 
Rotational constants in cm-1:     0.008925     0.008925     0.008925 
Rotational constants in MHz :   267.575193   267.575193   267.575193 

 Dipole components along the rotational axes: 
x,y,z [a.u.] :    -0.000001     0.000001    -0.000003 
x,y,z [Debye]:    -0.000002     0.000002    -0.000008 

 

----------------------------------------------------------------------------
                           ORCA NUMERICAL FREQUENCIES
                              (16-process run)
----------------------------------------------------------------------------

Number of atoms                ... 8
Central differences            ... used
Number of displacements        ... 48
Numerical increment            ... 5.000e-03 bohr
IR-spectrum generation         ... on
Raman-spectrum generation      ... off
Surface Crossing Hessian       ... off

The output will be reduced. Please look at the following files:
SCF program output             ... >CU8_Td_0.lastscf
Integral program output        ... >CU8_Td_0.lastint
Gradient program output        ... >CU8_Td_0.lastgrad
Dipole moment program output   ... >CU8_Td_0.lastmom
AutoCI program output          ... >CU8_Td_0.lastautoci

No protocol specified
No protocol specified
No protocol specified
	<< Calculating on displaced geometry  16 (of  48) >>
	<< Calculating on displaced geometry   2 (of  48) >>
	<< Calculating on displaced geometry   6 (of  48) >>
	<< Calculating on displaced geometry   8 (of  48) >>
	<< Calculating on displaced geometry  13 (of  48) >>
	<< Calculating on displaced geometry   3 (of  48) >>
	<< Calculating on displaced geometry  15 (of  48) >>
	<< Calculating on displaced geometry  12 (of  48) >>
	<< Calculating on displaced geometry   4 (of  48) >>
	<< Calculating on displaced geometry   9 (of  48) >>
	<< Calculating on displaced geometry   1 (of  48) >>
	<< Calculating on displaced geometry   5 (of  48) >>
	<< Calculating on displaced geometry  14 (of  48) >>
	<< Calculating on displaced geometry  10 (of  48) >>
	<< Calculating on displaced geometry   7 (of  48) >>
	<< Calculating on displaced geometry  11 (of  48) >>
	<< Calculating on displaced geometry  18 (of  48) >>
	<< Calculating on displaced geometry  17 (of  48) >>
	<< Calculating on displaced geometry  19 (of  48) >>
	<< Calculating on displaced geometry  20 (of  48) >>
	<< Calculating on displaced geometry  21 (of  48) >>
	<< Calculating on displaced geometry  23 (of  48) >>
	<< Calculating on displaced geometry  22 (of  48) >>
	<< Calculating on displaced geometry  24 (of  48) >>
	<< Calculating on displaced geometry  25 (of  48) >>
	<< Calculating on displaced geometry  26 (of  48) >>
	<< Calculating on displaced geometry  27 (of  48) >>
	<< Calculating on displaced geometry  28 (of  48) >>
	<< Calculating on displaced geometry  30 (of  48) >>
	<< Calculating on displaced geometry  29 (of  48) >>
	<< Calculating on displaced geometry  31 (of  48) >>
	<< Calculating on displaced geometry  32 (of  48) >>
	<< Calculating on displaced geometry  33 (of  48) >>
	<< Calculating on displaced geometry  34 (of  48) >>
	<< Calculating on displaced geometry  36 (of  48) >>
	<< Calculating on displaced geometry  37 (of  48) >>
	<< Calculating on displaced geometry  38 (of  48) >>
	<< Calculating on displaced geometry  35 (of  48) >>
	<< Calculating on displaced geometry  39 (of  48) >>
	<< Calculating on displaced geometry  40 (of  48) >>
	<< Calculating on displaced geometry  41 (of  48) >>
	<< Calculating on displaced geometry  42 (of  48) >>
	<< Calculating on displaced geometry  43 (of  48) >>
	<< Calculating on displaced geometry  44 (of  48) >>
	<< Calculating on displaced geometry  45 (of  48) >>
	<< Calculating on displaced geometry  46 (of  48) >>
	<< Calculating on displaced geometry  48 (of  48) >>
	<< Calculating on displaced geometry  47 (of  48) >>

-----------------------
VIBRATIONAL FREQUENCIES
-----------------------

Scaling factor for frequencies =  1.000000000 (already applied!)

   0:         0.00 cm**-1
   1:         0.00 cm**-1
   2:         0.00 cm**-1
   3:         0.00 cm**-1
   4:         0.00 cm**-1
   5:         0.00 cm**-1
   6:        17.08 cm**-1
   7:        17.09 cm**-1
   8:        17.09 cm**-1
   9:        26.48 cm**-1
  10:        26.49 cm**-1
  11:        52.34 cm**-1
  12:        52.38 cm**-1
  13:        52.39 cm**-1
  14:        52.44 cm**-1
  15:        62.95 cm**-1
  16:        62.95 cm**-1
  17:        63.28 cm**-1
  18:        63.29 cm**-1
  19:        63.30 cm**-1
  20:        66.66 cm**-1
  21:        66.66 cm**-1
  22:        66.67 cm**-1
  23:        67.92 cm**-1


------------
NORMAL MODES
------------

These modes are the cartesian displacements weighted by the diagonal matrix
M(i,i)=1/sqrt(m[i]) where m[i] is the mass of the displaced atom
Thus, these vectors are normalized but *not* orthogonal

                  0          1          2          3          4          5    
      0       0.000000   0.000000   0.000000   0.000000   0.000000   0.000000
      1       0.000000   0.000000   0.000000   0.000000   0.000000   0.000000
      2       0.000000   0.000000   0.000000   0.000000   0.000000   0.000000
      3       0.000000   0.000000   0.000000   0.000000   0.000000   0.000000
      4       0.000000   0.000000   0.000000   0.000000   0.000000   0.000000
      5       0.000000   0.000000   0.000000   0.000000   0.000000   0.000000
      6       0.000000   0.000000   0.000000   0.000000   0.000000   0.000000
      7       0.000000   0.000000   0.000000   0.000000   0.000000   0.000000
      8       0.000000   0.000000   0.000000   0.000000   0.000000   0.000000
      9       0.000000   0.000000   0.000000   0.000000   0.000000   0.000000
     10       0.000000   0.000000   0.000000   0.000000   0.000000   0.000000
     11       0.000000   0.000000   0.000000   0.000000   0.000000   0.000000
     12       0.000000   0.000000   0.000000   0.000000   0.000000   0.000000
     13       0.000000   0.000000   0.000000   0.000000   0.000000   0.000000
     14       0.000000   0.000000   0.000000   0.000000   0.000000   0.000000
     15       0.000000   0.000000   0.000000   0.000000   0.000000   0.000000
     16       0.000000   0.000000   0.000000   0.000000   0.000000   0.000000
     17       0.000000   0.000000   0.000000   0.000000   0.000000   0.000000
     18       0.000000   0.000000   0.000000   0.000000   0.000000   0.000000
     19       0.000000   0.000000   0.000000   0.000000   0.000000   0.000000
     20       0.000000   0.000000   0.000000   0.000000   0.000000   0.000000
     21       0.000000   0.000000   0.000000   0.000000   0.000000   0.000000
     22       0.000000   0.000000   0.000000   0.000000   0.000000   0.000000
     23       0.000000   0.000000   0.000000   0.000000   0.000000   0.000000
                  6          7          8          9         10         11    
      0       0.057112   0.113587   0.405336   0.270806   0.229676  -0.005520
      1       0.095453   0.402590   0.096221  -0.063193   0.349220   0.011201
      2      -0.038616  -0.288845   0.309066   0.334113  -0.119964   0.003501
      3      -0.056954  -0.113711  -0.405246   0.270921   0.229335  -0.015926
      4       0.344157  -0.132087   0.211397   0.063287  -0.349354  -0.016428
      5      -0.286975   0.245827   0.194087  -0.334135   0.120027  -0.024420
      6       0.382387   0.156853  -0.097794  -0.270906  -0.229466   0.050277
      7      -0.095552  -0.402618  -0.096359  -0.063222   0.349229   0.049370
      8       0.287107  -0.245916  -0.194076  -0.334185   0.119946  -0.052099
      9      -0.035534  -0.070516  -0.251655  -0.153752  -0.130655  -0.129396
     10       0.213457  -0.082028   0.131003  -0.035793   0.198056  -0.126194
     11      -0.178273   0.152589   0.120330   0.189834  -0.068279  -0.405416
[...]

The output will be reduced. Please look at the following files:
SCF program output             ... >CU8_C2v_3.lastscf
Integral program output        ... >CU8_C2v_3.lastint
Gradient program output        ... >CU8_C2v_3.lastgrad
Dipole moment program output   ... >CU8_C2v_3.lastmom
AutoCI program output          ... >CU8_C2v_3.lastautoci

No protocol specified
No protocol specified
No protocol specified
	<< Calculating on displaced geometry   1 (of  48) >>
	<< Calculating on displaced geometry   2 (of  48) >>
	<< Calculating on displaced geometry   6 (of  48) >>
	<< Calculating on displaced geometry   8 (of  48) >>
	<< Calculating on displaced geometry  13 (of  48) >>
	<< Calculating on displaced geometry   4 (of  48) >>
	<< Calculating on displaced geometry  12 (of  48) >>
	<< Calculating on displaced geometry   5 (of  48) >>
	<< Calculating on displaced geometry  14 (of  48) >>
	<< Calculating on displaced geometry  11 (of  48) >>
	<< Calculating on displaced geometry   9 (of  48) >>
	<< Calculating on displaced geometry  10 (of  48) >>
	<< Calculating on displaced geometry  16 (of  48) >>
	<< Calculating on displaced geometry  15 (of  48) >>
	<< Calculating on displaced geometry   7 (of  48) >>
	<< Calculating on displaced geometry   3 (of  48) >>
	<< Calculating on displaced geometry  17 (of  48) >>
	<< Calculating on displaced geometry  18 (of  48) >>
	<< Calculating on displaced geometry  19 (of  48) >>
	<< Calculating on displaced geometry  20 (of  48) >>
	<< Calculating on displaced geometry  21 (of  48) >>
	<< Calculating on displaced geometry  22 (of  48) >>
	<< Calculating on displaced geometry  23 (of  48) >>
	<< Calculating on displaced geometry  24 (of  48) >>
	<< Calculating on displaced geometry  25 (of  48) >>
	<< Calculating on displaced geometry  26 (of  48) >>
	<< Calculating on displaced geometry  28 (of  48) >>
	<< Calculating on displaced geometry  27 (of  48) >>
	<< Calculating on displaced geometry  29 (of  48) >>
	<< Calculating on displaced geometry  30 (of  48) >>
	<< Calculating on displaced geometry  31 (of  48) >>
	<< Calculating on displaced geometry  32 (of  48) >>
	<< Calculating on displaced geometry  33 (of  48) >>
	<< Calculating on displaced geometry  34 (of  48) >>
	<< Calculating on displaced geometry  35 (of  48) >>
	<< Calculating on displaced geometry  36 (of  48) >>
	<< Calculating on displaced geometry  37 (of  48) >>
	<< Calculating on displaced geometry  38 (of  48) >>
	<< Calculating on displaced geometry  39 (of  48) >>
	<< Calculating on displaced geometry  40 (of  48) >>
	<< Calculating on displaced geometry  41 (of  48) >>
	<< Calculating on displaced geometry  42 (of  48) >>
	<< Calculating on displaced geometry  43 (of  48) >>
	<< Calculating on displaced geometry  45 (of  48) >>
	<< Calculating on displaced geometry  44 (of  48) >>
	<< Calculating on displaced geometry  46 (of  48) >>
	<< Calculating on displaced geometry  47 (of  48) >>
	<< Calculating on displaced geometry  48 (of  48) >>

-----------------------
VIBRATIONAL FREQUENCIES
-----------------------

Scaling factor for frequencies =  1.000000000 (already applied!)

   0:         0.00 cm**-1
   1:         0.00 cm**-1
   2:         0.00 cm**-1
   3:         0.00 cm**-1
   4:         0.00 cm**-1
   5:         0.00 cm**-1
   6:       -95.52 cm**-1 ***imaginary mode***
   7:       -63.38 cm**-1 ***imaginary mode***
   8:       -60.31 cm**-1 ***imaginary mode***
   9:       -54.29 cm**-1 ***imaginary mode***
  10:       -44.28 cm**-1 ***imaginary mode***
  11:       -36.08 cm**-1 ***imaginary mode***
  12:       -32.43 cm**-1 ***imaginary mode***
  13:       -10.25 cm**-1 ***imaginary mode***
  14:         3.83 cm**-1
  15:        41.76 cm**-1
  16:        45.00 cm**-1
  17:        51.36 cm**-1
  18:        54.33 cm**-1
  19:        54.98 cm**-1
  20:        66.05 cm**-1
  21:        67.42 cm**-1
  22:        68.87 cm**-1
  23:        69.81 cm**-1


------------
NORMAL MODES
------------

These modes are the cartesian displacements weighted by the diagonal matrix
M(i,i)=1/sqrt(m[i]) where m[i] is the mass of the displaced atom
Thus, these vectors are normalized but *not* orthogonal

                  0          1          2          3          4          5    
      0       0.000000   0.000000   0.000000   0.000000   0.000000   0.000000
      1       0.000000   0.000000   0.000000   0.000000   0.000000   0.000000
      2       0.000000   0.000000   0.000000   0.000000   0.000000   0.000000
      3       0.000000   0.000000   0.000000   0.000000   0.000000   0.000000
      4       0.000000   0.000000   0.000000   0.000000   0.000000   0.000000
      5       0.000000   0.000000   0.000000   0.000000   0.000000   0.000000
      6       0.000000   0.000000   0.000000   0.000000   0.000000   0.000000
      7       0.000000   0.000000   0.000000   0.000000   0.000000   0.000000
      8       0.000000   0.000000   0.000000   0.000000   0.000000   0.000000
      9       0.000000   0.000000   0.000000   0.000000   0.000000   0.000000
     10       0.000000   0.000000   0.000000   0.000000   0.000000   0.000000
     11       0.000000   0.000000   0.000000   0.000000   0.000000   0.000000
     12       0.000000   0.000000   0.000000   0.000000   0.000000   0.000000
     13       0.000000   0.000000   0.000000   0.000000   0.000000   0.000000
     14       0.000000   0.000000   0.000000   0.000000   0.000000   0.000000
     15       0.000000   0.000000   0.000000   0.000000   0.000000   0.000000
     16       0.000000   0.000000   0.000000   0.000000   0.000000   0.000000
     17       0.000000   0.000000   0.000000   0.000000   0.000000   0.000000
     18       0.000000   0.000000   0.000000   0.000000   0.000000   0.000000
     19       0.000000   0.000000   0.000000   0.000000   0.000000   0.000000
     20       0.000000   0.000000   0.000000   0.000000   0.000000   0.000000
     21       0.000000   0.000000   0.000000   0.000000   0.000000   0.000000
     22       0.000000   0.000000   0.000000   0.000000   0.000000   0.000000
     23       0.000000   0.000000   0.000000   0.000000   0.000000   0.000000
                  6          7          8          9         10         11    
      0      -0.025792  -0.049009   0.131585   0.114269  -0.036801   0.179999
      1       0.027167   0.076116   0.128798  -0.119563  -0.013936   0.236057
      2      -0.383622  -0.458374  -0.001463   0.517483   0.212646   0.177830
      3      -0.286282   0.055029   0.438197  -0.174740   0.011923  -0.158273
      4       0.292542   0.054247  -0.447233   0.181865   0.008937  -0.152983
      5      -0.000211   0.089080   0.001469   0.001169  -0.218472  -0.530037
      6      -0.286792  -0.054956  -0.438264  -0.174909   0.008083  -0.122976
      7       0.292136  -0.055898   0.447139   0.181547   0.009624  -0.116908
      8       0.000283   0.104666   0.001546  -0.000398  -0.268913   0.037660
      9       0.044369   0.214979  -0.041495  -0.151042  -0.097119   0.001219
     10      -0.045501   0.210331   0.042665   0.156455  -0.095085   0.001607
     11      -0.000258   0.135450   0.000208   0.001902  -0.086128  -0.110618
     12      -0.025972   0.074161  -0.131364   0.114597  -0.015732   0.241669
     13       0.027329  -0.050136  -0.128676  -0.119770  -0.036794   0.172714
     14       0.383783  -0.455687  -0.001607  -0.520173   0.213746   0.173081
     15       0.268019   0.218362   0.189317   0.212759   0.385924   0.066788
     16      -0.274240  -0.218999   0.186432  -0.218948  -0.400896   0.011339
     17       0.180840   0.176335  -0.000256  -0.003206   0.175309  -0.127496
     18       0.044393  -0.244531   0.041264  -0.152116   0.137985  -0.221976
     19      -0.045264  -0.241004  -0.042706   0.155582   0.134743  -0.217557
     20       0.000187   0.232310   0.000588  -0.001485  -0.203085   0.503020
     21       0.268058  -0.214035  -0.189239   0.211183  -0.394264   0.013551
     22      -0.274169   0.225342  -0.186420  -0.217168   0.393406   0.065732
     23      -0.181003   0.176221  -0.000485   0.004707   0.174897  -0.123441
                 12         13         14         15         16         17    
      0       0.198046  -0.218258  -0.073301  -0.138638   0.339941  -0.112424
      1       0.095789   0.227689  -0.045986   0.141790  -0.346990  -0.117283
      2      -0.170337   0.093764   0.007929  -0.096001  -0.187482   0.004750
      3      -0.112546   0.208769  -0.218614  -0.180153   0.023954   0.125562
      4      -0.106689  -0.208387  -0.222692  -0.174954  -0.029465  -0.125816
      5       0.031477   0.006862  -0.370812  -0.319744   0.002688  -0.000659
      6      -0.150766   0.208915  -0.218129   0.179807   0.025216  -0.124029
      7      -0.146315  -0.208318  -0.221676   0.175163  -0.029524   0.127113
      8       0.528939  -0.005358   0.335213  -0.320408  -0.002607  -0.000429
      9      -0.277449  -0.105124   0.263180  -0.006997  -0.252326   0.460413
     10      -0.272567   0.094148   0.261958   0.000815   0.256142  -0.449787
     11      -0.447519  -0.011152   0.439358  -0.046615  -0.000994  -0.013253
     12       0.102269  -0.218584  -0.055989   0.139177   0.339462   0.116997
     13       0.194274   0.228220  -0.063585  -0.141235  -0.347559   0.118503
     14      -0.172747  -0.094446   0.004818  -0.095725   0.187061   0.005644
     15       0.047484   0.113008   0.076174  -0.184418  -0.112986  -0.118831
     16       0.023852  -0.115857   0.083878   0.192066   0.121429  -0.110881
     17       0.178447   0.508848  -0.007307   0.461357   0.267559   0.008920
     18       0.168596  -0.101719   0.136351   0.006270  -0.249678  -0.463180
     19       0.164854   0.097996   0.138228  -0.001812   0.254832   0.449147
     20      -0.131697   0.008950  -0.382083  -0.044397   0.001485  -0.013023
     21       0.024366   0.112993   0.090328   0.184953  -0.113583   0.115492
     22       0.046802  -0.115490   0.069875  -0.191832   0.121133   0.109004
     23       0.183437  -0.507469  -0.027115   0.461532  -0.267710   0.008050
                 18         19         20         21         22         23    
      0       0.140389  -0.002216  -0.419095   0.215773  -0.492199  -0.180663
      1       0.051327   0.080052  -0.433428   0.401332   0.350433   0.183015
      2       0.150098  -0.145917  -0.002214  -0.007361   0.081518   0.025784
      3       0.201266   0.140316   0.003794  -0.153182  -0.095112   0.443859
      4       0.200870   0.130907  -0.017168  -0.150171  -0.094535   0.433696
      5      -0.136304  -0.321232  -0.001400   0.306829   0.146102  -0.109379
      6       0.122309   0.220045  -0.002866  -0.063005   0.142222  -0.449801
      7       0.112014   0.217789   0.018096  -0.060924   0.140916  -0.439935
      8       0.267543   0.201392   0.000828  -0.227627   0.260988  -0.122483
      9       0.232777  -0.189895  -0.044620  -0.162274   0.043879  -0.062899
     10       0.254252  -0.200814   0.048995  -0.159588   0.040887  -0.060352
     11      -0.229691   0.377216   0.001356   0.389216  -0.213611   0.019895
     12       0.052069   0.085808   0.416393   0.411985   0.355164   0.198562
     13       0.131609  -0.002695   0.430775   0.213764  -0.484545  -0.166215
     14       0.152969  -0.142778  -0.002159  -0.008531   0.081841   0.025583
     15      -0.266425  -0.237064   0.263476  -0.043899   0.066537  -0.080901
     16      -0.217451  -0.270772   0.254694  -0.074629  -0.030638   0.088518
     17       0.093049  -0.083630  -0.000259  -0.052941  -0.160938   0.085088
     18      -0.251825   0.255456   0.045904  -0.127170   0.015437   0.056634
     19      -0.266487   0.270778  -0.047704  -0.123938   0.016953   0.054906
     20      -0.385415   0.203719   0.004185  -0.348095  -0.034794  -0.009400
     21      -0.230560  -0.272450  -0.262985  -0.078228  -0.035927   0.075211
     22      -0.266135  -0.225245  -0.254260  -0.045845   0.060530  -0.093633
     23       0.087751  -0.088770  -0.000339  -0.051490  -0.161106   0.084914


-----------
IR SPECTRUM
-----------

 Mode   freq       eps      Int      T**2         TX        TY        TZ
       cm**-1   L/(mol*cm) km/mol    a.u.
----------------------------------------------------------------------------
 14:      3.83   0.000000    0.00  0.000000  ( 0.000000  0.000000  0.000000)
 15:     41.76   0.000156    0.79  0.001168  ( 0.000198 -0.000272 -0.034171)
 16:     45.00   0.000001    0.00  0.000007  ( 0.001817 -0.001851 -0.000068)
 17:     51.36   0.000000    0.00  0.000001  (-0.000250  0.000052  0.001168)
 18:     54.33   0.000181    0.92  0.001042  ( 0.002968  0.002923  0.032016)
 19:     54.98   0.000175    0.89  0.000996  ( 0.008704  0.008510 -0.029109)
 20:     66.05   0.000000    0.00  0.000000  ( 0.000086  0.000090  0.000206)
 21:     67.42   0.000135    0.68  0.000626  (-0.016557 -0.016380 -0.009151)
 22:     68.87   0.000126    0.64  0.000570  ( 0.003343  0.003188 -0.023415)
 23:     69.81   0.000082    0.42  0.000367  (-0.000575 -0.000056  0.019155)

* The epsilon (eps) is given for a Dirac delta lineshape.
** The dipole moment derivative (T) already includes vibrational overlap.

The first frequency considered to be a vibration is 14
The total number of vibrations considered is 10


--------------------------
THERMOCHEMISTRY AT 298.15K
--------------------------

Temperature         ... 298.15 K
Pressure            ... 1.00 atm
Total Mass          ... 508.40 AMU

Throughout the following assumptions are being made:
  (1) The electronic state is orbitally nondegenerate
      but the spin degeneracy is treated
  (2) There are no thermally accessible electronically excited states
  (3) Hindered rotations indicated by low frequency modes are not
      treated as such but are treated as vibrations and this may
      cause some error
  (4) All equations used are the standard statistical mechanics
      equations for an ideal gas
  (5) All vibrations are strictly harmonic

freq.       3.83  E(vib)   ...       0.59 
freq.      41.76  E(vib)   ...       0.53 
freq.      45.00  E(vib)   ...       0.53 
freq.      51.36  E(vib)   ...       0.52 
freq.      54.33  E(vib)   ...       0.52 
freq.      54.98  E(vib)   ...       0.52 
freq.      66.05  E(vib)   ...       0.50 
freq.      67.42  E(vib)   ...       0.50 
freq.      68.87  E(vib)   ...       0.50 
freq.      69.81  E(vib)   ...       0.50 

------------
INNER ENERGY
------------

The inner energy is: U= E(el) + E(ZPE) + E(vib) + E(rot) + E(trans)
    E(el)   - is the total energy from the electronic structure calculation
              = E(kin-el) + E(nuc-el) + E(el-el) + E(nuc-nuc)
    E(ZPE)  - the the zero temperature vibrational energy from the frequency calculation
    E(vib)  - the the finite temperature correction to E(ZPE) due to population
              of excited vibrational states
    E(rot)  - is the rotational thermal energy
    E(trans)- is the translational thermal energy

Summary of contributions to the inner energy U:
Electronic energy                ... -13121.31112604 Eh
Zero point energy                ...      0.00119243 Eh       0.75 kcal/mol
Thermal vibrational correction   ...      0.00830623 Eh       5.21 kcal/mol
Thermal rotational correction    ...      0.00141627 Eh       0.89 kcal/mol
Thermal translational correction ...      0.00141627 Eh       0.89 kcal/mol
-----------------------------------------------------------------------
Total thermal energy                 -13121.29879483 Eh


Summary of corrections to the electronic energy:
(perhaps to be used in another calculation)
Total thermal correction                  0.01113877 Eh       6.99 kcal/mol
Non-thermal (ZPE) correction              0.00119243 Eh       0.75 kcal/mol
-----------------------------------------------------------------------
Total correction                          0.01233121 Eh       7.74 kcal/mol


--------
ENTHALPY
--------

The enthalpy is H = U + kB*T
                kB is Boltzmann's constant
Total free energy                 ... -13121.29879483 Eh 
Thermal Enthalpy correction       ...      0.00094421 Eh       0.59 kcal/mol
-----------------------------------------------------------------------
Total Enthalpy                    ... -13121.29785062 Eh


Note: Only C1 symmetry has been detected, increase convergence thresholds 
      if your molecule has a higher symmetry. Symmetry factor of 1.0 is   
      used for the rotational entropy correction. 
 

Note: Rotational entropy computed according to Herzberg 
Infrared and Raman Spectra, Chapter V,1, Van Nostrand Reinhold, 1945 
Point Group:  C1, Symmetry Number:   1  
Rotational constants in cm-1:     0.010816     0.006873     0.005511 

Vibrational entropy computed according to the QRRHO of S. Grimme
Chem.Eur.J. 2012 18 9955


-------
ENTROPY
-------

The entropy contributions are T*S = T*(S(el)+S(vib)+S(rot)+S(trans))
     S(el)   - electronic entropy
     S(vib)  - vibrational entropy
     S(rot)  - rotational entropy
     S(trans)- translational entropy
The entropies will be listed as multiplied by the temperature to get
units of energy

Electronic entropy                ...      0.00065446 Eh      0.41 kcal/mol
Vibrational entropy               ...      0.01801065 Eh     11.30 kcal/mol
Rotational entropy                ...      0.01645428 Eh     10.33 kcal/mol
Translational entropy             ...      0.02117424 Eh     13.29 kcal/mol
-----------------------------------------------------------------------
Final entropy term                ...      0.05629363 Eh     35.32 kcal/mol

In case the symmetry of your molecule has not been determined correctly
or in case you have a reason to use a different symmetry number we print 
out the resulting rotational entropy values for sn=1,12 :
 --------------------------------------------------------
|  sn= 1 | S(rot)=       0.01645428 Eh     10.33 kcal/mol|
|  sn= 2 | S(rot)=       0.01579983 Eh      9.91 kcal/mol|
|  sn= 3 | S(rot)=       0.01541700 Eh      9.67 kcal/mol|
|  sn= 4 | S(rot)=       0.01514537 Eh      9.50 kcal/mol|
|  sn= 5 | S(rot)=       0.01493468 Eh      9.37 kcal/mol|
|  sn= 6 | S(rot)=       0.01476254 Eh      9.26 kcal/mol|
|  sn= 7 | S(rot)=       0.01461699 Eh      9.17 kcal/mol|
|  sn= 8 | S(rot)=       0.01449092 Eh      9.09 kcal/mol|
|  sn= 9 | S(rot)=       0.01437971 Eh      9.02 kcal/mol|
|  sn=10 | S(rot)=       0.01428023 Eh      8.96 kcal/mol|
|  sn=11 | S(rot)=       0.01419024 Eh      8.90 kcal/mol|
|  sn=12 | S(rot)=       0.01410808 Eh      8.85 kcal/mol|
 --------------------------------------------------------


-------------------
GIBBS FREE ENERGY
-------------------

The Gibbs free energy is G = H - T*S

Total enthalpy                    ... -13121.29785062 Eh 
Total entropy correction          ...     -0.05629363 Eh    -35.32 kcal/mol
-----------------------------------------------------------------------
Final Gibbs free energy         ... -13121.35414425 Eh

For completeness - the Gibbs free energy minus the electronic energy
G-E(el)                           ...     -0.04301822 Eh    -26.99 kcal/mol


No protocol specified

Timings for individual modules:

Sum of individual times         ...      319.912 sec (=   5.332 min)
GTO integral calculation        ...        2.500 sec (=   0.042 min)   0.8 %
SCF iterations                  ...       37.054 sec (=   0.618 min)  11.6 %
SCF Gradient evaluation         ...        7.260 sec (=   0.121 min)   2.3 %
Numerical frequency calculation ...      273.098 sec (=   4.552 min)  85.4 %



                             ****ORCA TERMINATED NORMALLY****
TOTAL RUN TIME: 0 days 0 hours 21 minutes 13 seconds 888 msec
