
                                 *****************
                                 * O   R   C   A *
                                 *****************

                                            #,                                       
                                            ###                                      
                                            ####                                     
                                            #####                                    
                                            ######                                   
                                           ########,                                 
                                     ,,################,,,,,                         
                               ,,#################################,,                 
                          ,,##########################################,,             
                       ,#########################################, ''#####,          
                    ,#############################################,,   '####,        
                  ,##################################################,,,,####,       
                ,###########''''           ''''###############################       
              ,#####''   ,,,,##########,,,,          '''####'''          '####       
            ,##' ,,,,###########################,,,                        '##       
           ' ,,###''''                  '''############,,,                           
         ,,##''                                '''############,,,,        ,,,,,,###''
      ,#''                                            '''#######################'''  
     '                                                          ''''####''''         
             ,#######,   #######,   ,#######,      ##                                
            ,#'     '#,  ##    ##  ,#'     '#,    #''#        ######   ,####,        
            ##       ##  ##   ,#'  ##            #'  '#       #        #'  '#        
            ##       ##  #######   ##           ,######,      #####,   #    #        
            '#,     ,#'  ##    ##  '#,     ,#' ,#      #,         ##   #,  ,#        
             '#######'   ##     ##  '#######'  #'      '#     #####' # '####'        



                  #######################################################
                  #                        -***-                        #
                  #          Department of theory and spectroscopy      #
                  #    Directorship and core code : Frank Neese         #
                  #        Max Planck Institute fuer Kohlenforschung    #
                  #                Kaiser Wilhelm Platz 1               #
                  #                 D-45470 Muelheim/Ruhr               #
                  #                      Germany                        #
                  #                                                     #
                  #                  All rights reserved                #
                  #                        -***-                        #
                  #######################################################


                         Program Version 5.0.2 -  RELEASE  -


 With contributions from (in alphabetic order):
   Daniel Aravena         : Magnetic Suceptibility
   Michael Atanasov       : Ab Initio Ligand Field Theory (pilot matlab implementation)
   Alexander A. Auer      : GIAO ZORA, VPT2 properties, NMR spectrum
   Ute Becker             : Parallelization
   Giovanni Bistoni       : ED, misc. LED, open-shell LED, HFLD
   Martin Brehm           : Molecular dynamics
   Dmytro Bykov           : SCF Hessian
   Vijay G. Chilkuri      : MRCI spin determinant printing, contributions to CSF-ICE
   Dipayan Datta          : RHF DLPNO-CCSD density
   Achintya Kumar Dutta   : EOM-CC, STEOM-CC
   Dmitry Ganyushin       : Spin-Orbit,Spin-Spin,Magnetic field MRCI
   Miquel Garcia          : C-PCM and meta-GGA Hessian, CC/C-PCM, Gaussian charge scheme
   Yang Guo               : DLPNO-NEVPT2, F12-NEVPT2, CIM, IAO-localization
   Andreas Hansen         : Spin unrestricted coupled pair/coupled cluster methods
   Benjamin Helmich-Paris : MC-RPA, TRAH-SCF, COSX integrals
   Lee Huntington         : MR-EOM, pCC
   Robert Izsak           : Overlap fitted RIJCOSX, COSX-SCS-MP3, EOM
   Marcus Kettner         : VPT2
   Christian Kollmar      : KDIIS, OOCD, Brueckner-CCSD(T), CCSD density, CASPT2, CASPT2-K
   Simone Kossmann        : Meta GGA functionals, TD-DFT gradient, OOMP2, MP2 Hessian
   Martin Krupicka        : Initial AUTO-CI
   Lucas Lang             : DCDCAS
   Marvin Lechner         : AUTO-CI (C++ implementation), FIC-MRCC
   Dagmar Lenk            : GEPOL surface, SMD
   Dimitrios Liakos       : Extrapolation schemes; Compound Job, initial MDCI parallelization
   Dimitrios Manganas     : Further ROCIS development; embedding schemes
   Dimitrios Pantazis     : SARC Basis sets
   Anastasios Papadopoulos: AUTO-CI, single reference methods and gradients
   Taras Petrenko         : DFT Hessian,TD-DFT gradient, ASA, ECA, R-Raman, ABS, FL, XAS/XES, NRVS
   Peter Pinski           : DLPNO-MP2, DLPNO-MP2 Gradient
   Christoph Reimann      : Effective Core Potentials
   Marius Retegan         : Local ZFS, SOC
   Christoph Riplinger    : Optimizer, TS searches, QM/MM, DLPNO-CCSD(T), (RO)-DLPNO pert. Triples
   Tobias Risthaus        : Range-separated hybrids, TD-DFT gradient, RPA, STAB
   Michael Roemelt        : Original ROCIS implementation
   Masaaki Saitow         : Open-shell DLPNO-CCSD energy and density
   Barbara Sandhoefer     : DKH picture change effects
   Avijit Sen             : IP-ROCIS
   Kantharuban Sivalingam : CASSCF convergence, NEVPT2, FIC-MRCI
   Bernardo de Souza      : ESD, SOC TD-DFT
   Georgi Stoychev        : AutoAux, RI-MP2 NMR, DLPNO-MP2 response
   Willem Van den Heuvel  : Paramagnetic NMR
   Boris Wezisla          : Elementary symmetry handling
   Frank Wennmohs         : Technical directorship


 We gratefully acknowledge several colleagues who have allowed us to
 interface, adapt or use parts of their codes:
   Stefan Grimme, W. Hujo, H. Kruse, P. Pracht,  : VdW corrections, initial TS optimization,
                  C. Bannwarth, S. Ehlert          DFT functionals, gCP, sTDA/sTD-DF
   Ed Valeev, F. Pavosevic, A. Kumar             : LibInt (2-el integral package), F12 methods
   Garnet Chan, S. Sharma, J. Yang, R. Olivares  : DMRG
   Ulf Ekstrom                                   : XCFun DFT Library
   Mihaly Kallay                                 : mrcc  (arbitrary order and MRCC methods)
   Jiri Pittner, Ondrej Demel                    : Mk-CCSD
   Frank Weinhold                                : gennbo (NPA and NBO analysis)
   Christopher J. Cramer and Donald G. Truhlar   : smd solvation model
   Lars Goerigk                                  : TD-DFT with DH, B97 family of functionals
   V. Asgeirsson, H. Jonsson                     : NEB implementation
   FAccTs GmbH                                   : IRC, NEB, NEB-TS, DLPNO-Multilevel, CI-OPT
                                                   MM, QMMM, 2- and 3-layer-ONIOM, Crystal-QMMM,
                                                   LR-CPCM, SF, NACMEs, symmetry and pop. for TD-DFT,
                                                   nearIR, NL-DFT gradient (VV10), updates on ESD,
                                                   ML-optimized integration grids
   S Lehtola, MJT Oliveira, MAL Marques          : LibXC Library
   Liviu Ungur et al                             : ANISO software


 Your calculation uses the libint2 library for the computation of 2-el integrals
 For citations please refer to: http://libint.valeyev.net

 Your ORCA version has been built with support for libXC version: 5.1.0
 For citations please refer to: https://tddft.org/programs/libxc/

 This ORCA versions uses:
   CBLAS   interface :  Fast vector & matrix operations
   LAPACKE interface :  Fast linear algebra routines
   SCALAPACK package :  Parallel linear algebra routines
   Shared memory     :  Shared parallel matrices
   BLAS/LAPACK       :  OpenBLAS 0.3.15  USE64BITINT DYNAMIC_ARCH NO_AFFINITY Haswell SINGLE_THREADED
        Core in use  :  Haswell
   Copyright (c) 2011-2014, The OpenBLAS Project


Your calculation utilizes the atom-pairwise dispersion correction
with the Becke-Johnson damping scheme (D3BJ)
Cite in your paper:
S.Grimme, S.Ehrlich, L.Goerigk, J Comput Chem, (2011), 32, 1456–1465 
S.Grimme, J.Antony, S.Ehrlich and H.Krieg, J.Chem.Phys., 132, (2010), 154104 
   

================================================================================

----- Orbital basis set information -----
Your calculation utilizes the basis: def2-TZVP
   F. Weigend and R. Ahlrichs, Phys. Chem. Chem. Phys. 7, 3297 (2005).

----- AuxJ basis set information -----
Your calculation utilizes the auxiliary basis: def2/J
   F. Weigend, Phys. Chem. Chem. Phys. 8, 1057 (2006).

================================================================================
                                        WARNINGS
                       Please study these warnings very carefully!
================================================================================


INFO   : the flag for use of the SHARK integral package has been found!

Your calculation utilizes the atom-pairwise dispersion correction
with the Becke-Johnson damping scheme (D3BJ)
Cite in your paper:
S.Grimme, S.Ehrlich, L.Goerigk, J Comput Chem, (2011), 32, 1456–1465 
S.Grimme, J.Antony, S.Ehrlich and H.Krieg, J.Chem.Phys., 132, (2010), 154104 
   

================================================================================

----- Orbital basis set information -----
Your calculation utilizes the basis: def2-TZVP
   F. Weigend and R. Ahlrichs, Phys. Chem. Chem. Phys. 7, 3297 (2005).

----- AuxJ basis set information -----
Your calculation utilizes the auxiliary basis: def2/J
   F. Weigend, Phys. Chem. Chem. Phys. 8, 1057 (2006).

================================================================================
                                        WARNINGS
                       Please study these warnings very carefully!
================================================================================


WARNING: MOInp is set but Guess=PModel. MOInp will be ignored!
         To read the initial guess from a file you must also specify
         'MORead' in the simple input or 'Guess MORead' in the %scf block


INFO   : the flag for use of the SHARK integral package has been found!

Your calculation utilizes the atom-pairwise dispersion correction
with the Becke-Johnson damping scheme (D3BJ)
Cite in your paper:
S.Grimme, S.Ehrlich, L.Goerigk, J Comput Chem, (2011), 32, 1456–1465 
S.Grimme, J.Antony, S.Ehrlich and H.Krieg, J.Chem.Phys., 132, (2010), 154104 
   

================================================================================

----- Orbital basis set information -----
Your calculation utilizes the basis: def2-TZVP
   F. Weigend and R. Ahlrichs, Phys. Chem. Chem. Phys. 7, 3297 (2005).

----- AuxJ basis set information -----
Your calculation utilizes the auxiliary basis: def2/J
   F. Weigend, Phys. Chem. Chem. Phys. 8, 1057 (2006).

================================================================================
                                        WARNINGS
                       Please study these warnings very carefully!
================================================================================


WARNING: MOInp is set but Guess=PModel. MOInp will be ignored!
         To read the initial guess from a file you must also specify
         'MORead' in the simple input or 'Guess MORead' in the %scf block


INFO   : the flag for use of the SHARK integral package has been found!

Your calculation utilizes the atom-pairwise dispersion correction
with the Becke-Johnson damping scheme (D3BJ)
Cite in your paper:
S.Grimme, S.Ehrlich, L.Goerigk, J Comput Chem, (2011), 32, 1456–1465 
S.Grimme, J.Antony, S.Ehrlich and H.Krieg, J.Chem.Phys., 132, (2010), 154104 
   

================================================================================

----- Orbital basis set information -----
Your calculation utilizes the basis: def2-TZVP
   F. Weigend and R. Ahlrichs, Phys. Chem. Chem. Phys. 7, 3297 (2005).

----- AuxJ basis set information -----
Your calculation utilizes the auxiliary basis: def2/J
   F. Weigend, Phys. Chem. Chem. Phys. 8, 1057 (2006).

================================================================================
                                        WARNINGS
                       Please study these warnings very carefully!
================================================================================


WARNING: MOInp is set but Guess=PModel. MOInp will be ignored!
         To read the initial guess from a file you must also specify
         'MORead' in the simple input or 'Guess MORead' in the %scf block


INFO   : the flag for use of the SHARK integral package has been found!

Your calculation utilizes the atom-pairwise dispersion correction
with the Becke-Johnson damping scheme (D3BJ)
Cite in your paper:
S.Grimme, S.Ehrlich, L.Goerigk, J Comput Chem, (2011), 32, 1456–1465 
S.Grimme, J.Antony, S.Ehrlich and H.Krieg, J.Chem.Phys., 132, (2010), 154104 
   

================================================================================

----- Orbital basis set information -----
Your calculation utilizes the basis: def2-TZVP
   F. Weigend and R. Ahlrichs, Phys. Chem. Chem. Phys. 7, 3297 (2005).

----- AuxJ basis set information -----
Your calculation utilizes the auxiliary basis: def2/J
   F. Weigend, Phys. Chem. Chem. Phys. 8, 1057 (2006).

================================================================================
                                        WARNINGS
                       Please study these warnings very carefully!
================================================================================


WARNING: MOInp is set but Guess=PModel. MOInp will be ignored!
         To read the initial guess from a file you must also specify
         'MORead' in the simple input or 'Guess MORead' in the %scf block


INFO   : the flag for use of the SHARK integral package has been found!

================================================================================
                                       INPUT FILE
================================================================================
NAME = ex.inp
|  1> ! PBE D3 def2-TZVP opt PModel NOAUTOSTART cpcm(water)
|  2> 
|  3> %pal nprocs=16 end
|  4> %geom maxiter=200 end
|  5> %base "1_M0005"
|  6> 
|  7> * xyz -1 1
|  8> O        2.249561     -1.841863     -0.165908
|  9> O        3.249468      0.657249     -0.451620
| 10> N       -3.084232      0.242549     -1.357338
| 11> C       -2.188716     -0.077980      0.969998
| 12> C       -0.740375      0.117388      0.607627
| 13> C       -3.047488     -0.629768     -0.178708
| 14> C        0.098468     -0.976667      0.396777
| 15> C       -0.204397      1.402002      0.460742
| 16> C        1.428280     -0.756106      0.043963
| 17> C        1.143233      1.583680      0.103622
| 18> C        2.020984      0.513725     -0.123158
| 19> H       -2.616910      0.869389      1.322475
| 20> H       -2.244929     -0.765330      1.823814
| 21> H       -4.073913     -0.759665      0.181667
| 22> H       -2.691449     -1.619393     -0.486219
| 23> H       -0.256297     -1.995555      0.497450
| 24> H       -0.819276      2.282701      0.617511
| 25> H        1.526577      2.597370     -0.003164
| 26> H       -2.138388      0.248324     -1.757011
| 27> H       -3.222242      1.205217     -1.051837
| 28> H        3.074280     -1.341635     -0.388278
| 29> *
| 30> 
| 31> $new_job
| 32> 
| 33> ! PBE D3 def2-TZVP opt PModel NOAUTOSTART cpcm(water)
| 34> 
| 35> %pal nprocs=16 end
| 36> %geom maxiter=200 end
| 37> %base "2_M0003"
| 38> 
| 39> * xyz -1 1
| 40> O        2.250562     -1.837087      0.120435
| 41> O        3.249215      0.590745     -0.536637
| 42> N       -2.973997     -0.755944     -1.280420
| 43> C       -2.192138      0.067321      0.963195
| 44> C       -0.742966      0.212891      0.581727
| 45> C       -3.162396      0.235163     -0.216332
| 46> C        0.098118     -0.899035      0.541937
| 47> C       -0.209018      1.460924      0.241720
| 48> C        1.428294     -0.732789      0.162699
| 49> C        1.139750      1.588258     -0.134820
| 50> C        2.019863      0.497616     -0.193566
| 51> H       -2.427422      0.814402      1.732028
| 52> H       -2.358044     -0.908916      1.437108
| 53> H       -3.070819      1.236843     -0.651038
| 54> H       -4.188312      0.143887      0.157118
| 55> H       -0.254443     -1.891885      0.794515
| 56> H       -0.827414      2.353010      0.260268
| 57> H        1.521560      2.574498     -0.394616
| 58> H       -2.879698     -1.679706     -0.858237
| 59> H       -2.048479     -0.587158     -1.692229
| 60> H        3.075798     -1.374731     -0.171712
| 61> *
| 62> 
| 63> $new_job
| 64> 
| 65> ! PBE D3 def2-TZVP opt PModel NOAUTOSTART cpcm(water)
| 66> 
| 67> %pal nprocs=16 end
| 68> %geom maxiter=200 end
| 69> %base "3_M0004"
| 70> 
| 71> * xyz -1 1
| 72> O        2.316592     -1.801093      0.257262
| 73> O        3.237912      0.735278      0.459552
| 74> N       -3.220340      0.495950      1.166711
| 75> C       -2.161748     -0.219699     -0.983872
| 76> C       -0.718864      0.036438     -0.631727
| 77> C       -3.015156     -0.614276      0.230639
| 78> C        0.149710     -1.023083     -0.368749
| 79> C       -0.223821      1.341085     -0.528716
| 80> C        1.467221     -0.749389     -0.007824
| 81> C        1.113387      1.576819     -0.162743
| 82> C        2.019486      0.543168      0.118056
| 83> H       -2.199130     -1.027518     -1.726136
| 84> H       -2.593812      0.659153     -1.479454
| 85> H       -2.555203     -1.453444      0.765034
| 86> H       -3.998147     -0.949411     -0.117394
| 87> H       -0.174426     -2.054916     -0.432357
| 88> H       -0.868152      2.193757     -0.721785
| 89> H        1.463678      2.605306     -0.089691
| 90> H       -2.298196      0.881272      1.396536
| 91> H       -3.574650      0.121507      2.044976
| 92> H        3.123093     -1.267211      0.468394
| 93> *
| 94> 
| 95> $new_job
| 96> 
| 97> ! PBE D3 def2-TZVP opt PModel NOAUTOSTART cpcm(water)
| 98> 
| 99> %pal nprocs=16 end
|100> %geom maxiter=200 end
|101> %base "4_M0007"
|102> 
|103> * xyz -1 1
|104> O        2.185387     -1.873294      0.196276
|105> O        3.274745      0.479286     -0.581660
|106> N       -3.065325     -1.019145     -1.015728
|107> C       -2.179358      0.247270      0.951491
|108> C       -0.721305      0.314174      0.575653
|109> C       -3.112091      0.241150     -0.268855
|110> C        0.074096     -0.831151      0.585929
|111> C       -0.139187      1.522821      0.175318
|112> C        1.407698     -0.736242      0.192714
|113> C        1.211117      1.578657     -0.212189
|114> C        2.045798      0.451654     -0.225280
|115> H       -2.415811      1.116754      1.578446
|116> H       -2.370189     -0.631952      1.580195
|117> H       -2.864044      1.068365     -0.943814
|118> H       -4.142709      0.394257      0.068937
|119> H       -0.321742     -1.795362      0.883523
|120> H       -0.722100      2.438271      0.153397
|121> H        1.630497      2.535483     -0.519306
|122> H       -2.080775     -1.236236     -1.203773
|123> H       -3.483728     -0.875277     -1.932682
|124> H        3.026209     -1.458215     -0.120447
|125> *
|126> 
|127> $new_job
|128> 
|129> ! PBE D3 def2-TZVP opt PModel NOAUTOSTART cpcm(water)
|130> 
|131> %pal nprocs=16 end
|132> %geom maxiter=200 end
|133> %base "5_M0006"
|134> 
|135> * xyz -1 1
|136> O        2.394153     -1.874655     -0.048523
|137> O        3.462705      0.594594     -0.343502
|138> N       -4.323272     -0.240881     -0.391632
|139> C       -2.083782      0.002404      0.654556
|140> C       -0.610339      0.161734      0.400458
|141> C       -2.885648     -0.083341     -0.649455
|142> C        0.220338     -0.953543      0.297203
|143> C       -0.042677      1.430295      0.237326
|144> C        1.578880     -0.768454      0.048575
|145> C        1.333349      1.575979     -0.012973
|146> C        2.207814      0.484141     -0.117403
|147> H       -2.438551      0.844902      1.262683
|148> H       -2.252558     -0.896577      1.261886
|149> H       -2.543380     -0.930347     -1.254907
|150> H       -2.735703      0.820432     -1.250956
|151> H       -0.161654     -1.961703      0.405490
|152> H       -0.654670      2.324669      0.301418
|153> H        1.742196      2.578170     -0.132430
|154> H       -4.636562      0.533032      0.192563
|155> H       -4.462210     -1.085003      0.162605
|156> H        3.243520     -1.396202     -0.220443
|157> *
|158> 
|159> 
|160> 
|161> 
|162>                          ****END OF INPUT****
================================================================================


                 $$$$$$$$$$$$$$$$$$$$$$$$$$$$$$$$$$$$$$$$$$$$$$ 
                 $ THERE ARE  5 JOBS TO BE PROCESSED THIS RUN $
                 $$$$$$$$$$$$$$$$$$$$$$$$$$$$$$$$$$$$$$$$$$$$$$ 




                 $$$$$$$$$$$$$$$$  JOB NUMBER  1 $$$$$$$$$$$$$$


                       *****************************
                       * Geometry Optimization Run *
                       *****************************

Geometry optimization settings:
Update method            Update   .... BFGS
Choice of coordinates    CoordSys .... Z-matrix Internals
Initial Hessian          InHess   .... Almoef's Model

Convergence Tolerances:
Energy Change            TolE     ....  5.0000e-06 Eh
Max. Gradient            TolMAXG  ....  3.0000e-04 Eh/bohr
RMS Gradient             TolRMSG  ....  1.0000e-04 Eh/bohr
Max. Displacement        TolMAXD  ....  4.0000e-03 bohr
RMS Displacement         TolRMSD  ....  2.0000e-03 bohr
Strict Convergence                ....  False
------------------------------------------------------------------------------
                        ORCA OPTIMIZATION COORDINATE SETUP
------------------------------------------------------------------------------

The optimization will be done in new redundant internal coordinates
Making redundant internal coordinates   ...  (new redundants) done
Evaluating the initial hessian          ...  (Almloef) done
Evaluating the coordinates              ...  done
Calculating the B-matrix                .... done
Calculating the G-matrix                .... done
Diagonalizing the G-matrix              .... done
Small eigenvalue found = 1.912e-02
The first mode is                       ....   45
The number of degrees of freedom        ....   57

    -----------------------------------------------------------------
                    Redundant Internal Coordinates


    -----------------------------------------------------------------
         Definition                    Initial Value    Approx d2E/dq
    -----------------------------------------------------------------
      1. B(C   4,C   3)                  1.5057         0.408437   
      2. B(C   5,N   2)                  1.4668         0.422057   
      3. B(C   5,C   3)                  1.5367         0.364476   
      4. B(C   6,C   4)                  1.3947         0.614195   
      5. B(C   7,C   4)                  1.3997         0.602987   
      6. B(C   8,C   6)                  1.3934         0.617073   
      7. B(C   8,O   0)                  1.3775         0.585963   
      8. B(C   9,C   7)                  1.4059         0.589275   
      9. B(C  10,C   9)                  1.4024         0.597010   
     10. B(C  10,C   8)                  1.4113         0.577823   
     11. B(C  10,O   1)                  1.2797         0.839141   
     12. B(H  11,C   3)                  1.0978         0.349967   
     13. B(H  12,C   3)                  1.0975         0.350252   
     14. B(H  13,C   5)                  1.0956         0.352796   
     15. B(H  14,C   5)                  1.0958         0.352564   
     16. B(H  15,C   6)                  1.0836         0.368706   
     17. B(H  16,C   7)                  1.0855         0.366119   
     18. B(H  17,C   9)                  1.0890         0.361424   
     19. B(H  18,N   2)                  1.0268         0.406756   
     20. B(H  19,N   2)                  1.0194         0.418073   
     21. B(H  20,O   0)                  0.9899         0.465924   
     22. A(C   8,O   0,H  20)           97.6227         0.359739   
     23. A(H  18,N   2,H  19)          103.6534         0.298640   
     24. A(C   5,N   2,H  19)          108.9175         0.334270   
     25. A(C   5,N   2,H  18)          107.0396         0.332752   
     26. A(C   4,C   3,H  11)          109.9070         0.327573   
     27. A(C   5,C   3,H  11)          109.3848         0.321502   
     28. A(H  11,C   3,H  12)          105.7059         0.288285   
     29. A(C   5,C   3,H  12)          109.1484         0.321545   
     30. A(C   4,C   3,C   5)          113.8432         0.367390   
     31. A(C   4,C   3,H  12)          108.5265         0.327617   
     32. A(C   3,C   4,C   6)          120.8739         0.402293   
     33. A(C   6,C   4,C   7)          118.2805         0.431171   
     34. A(C   3,C   4,C   7)          120.8426         0.400989   
     35. A(C   3,C   5,H  14)          110.6397         0.321892   
     36. A(H  13,C   5,H  14)          106.8368         0.288946   
     37. A(N   2,C   5,H  14)          108.6475         0.327772   
     38. A(C   3,C   5,H  13)          108.6783         0.321926   
     39. A(N   2,C   5,H  13)          108.1411         0.327808   
     40. A(N   2,C   5,C   3)          113.6478         0.367157   
     41. A(C   8,C   6,H  15)          119.0015         0.354039   
     42. A(C   4,C   6,H  15)          121.7803         0.353759   
     43. A(C   4,C   6,C   8)          119.2180         0.432963   
     44. A(C   9,C   7,H  16)          118.3467         0.350871   
     45. A(C   4,C   7,H  16)          120.8355         0.352238   
     46. A(C   4,C   7,C   9)          120.8177         0.427978   
     47. A(O   0,C   8,C   6)          118.8705         0.426519   
     48. A(C   6,C   8,C  10)          124.9755         0.428244   
     49. A(O   0,C   8,C  10)          116.1539         0.421536   
     50. A(C  10,C   9,H  17)          118.2948         0.350879   
     51. A(C   7,C   9,H  17)          118.8560         0.350107   
     52. A(C   7,C   9,C  10)          122.8491         0.427214   
     53. A(C   8,C  10,C   9)          113.8582         0.425715   
     54. A(O   1,C  10,C   9)          123.8336         0.452371   
     55. A(O   1,C  10,C   8)          122.3082         0.449694   
     56. D(C   6,C   4,C   3,C   5)    -70.1943         0.012359   
     57. D(C   6,C   4,C   3,H  11)    166.7135         0.012359   
     58. D(C   7,C   4,C   3,C   5)    109.1691         0.012359   
     59. D(C   7,C   4,C   3,H  12)   -129.0733         0.012359   
     60. D(C   7,C   4,C   3,H  11)    -13.9231         0.012359   
     61. D(C   6,C   4,C   3,H  12)     51.5633         0.012359   
     62. D(N   2,C   5,C   3,H  11)     62.5645         0.010640   
     63. D(C   3,C   5,N   2,H  18)     66.9177         0.015188   
     64. D(H  14,C   5,N   2,H  19)   -168.1871         0.015188   
     65. D(H  14,C   5,N   2,H  18)    -56.7167         0.015188   
     66. D(H  14,C   5,C   3,H  11)   -174.8924         0.010640   
     67. D(N   2,C   5,C   3,C   4)    -60.8122         0.010640   
     68. D(H  13,C   5,C   3,H  12)     57.3226         0.010640   
     69. D(N   2,C   5,C   3,H  12)    177.7753         0.010640   
     70. D(H  13,C   5,C   3,H  11)    -57.8882         0.010640   
     71. D(C   3,C   5,N   2,H  19)    -44.5527         0.015188   
     72. D(H  13,C   5,N   2,H  18)   -172.3272         0.015188   
     73. D(H  14,C   5,C   3,C   4)     61.7308         0.010640   
     74. D(H  13,C   5,N   2,H  19)     76.2023         0.015188   
     75. D(H  14,C   5,C   3,H  12)    -59.6817         0.010640   
     76. D(H  13,C   5,C   3,C   4)    178.7351         0.010640   
     77. D(H  15,C   6,C   4,C   7)    179.8545         0.026074   
     78. D(H  15,C   6,C   4,C   3)     -0.7661         0.026074   
     79. D(C   8,C   6,C   4,C   3)    179.0799         0.026074   
     80. D(C   8,C   6,C   4,C   7)     -0.2995         0.026074   
     81. D(H  16,C   7,C   4,C   6)   -179.8395         0.025079   
     82. D(H  16,C   7,C   4,C   3)      0.7809         0.025079   
     83. D(C   9,C   7,C   4,C   6)      0.2982         0.025079   
     84. D(C   9,C   7,C   4,C   3)   -179.0814         0.025079   
     85. D(C  10,C   8,O   0,H  20)      0.0288         0.025002   
     86. D(C   6,C   8,O   0,H  20)    179.9336         0.025002   
     87. D(C  10,C   8,C   6,H  15)    179.9101         0.026334   
     88. D(C  10,C   8,C   6,C   4)      0.0598         0.026334   
     89. D(O   0,C   8,C   6,H  15)      0.0144         0.026334   
     90. D(O   0,C   8,C   6,C   4)   -179.8359         0.026334   
     91. D(H  17,C   9,C   7,H  16)      0.0559         0.023894   
     92. D(H  17,C   9,C   7,C   4)    179.9216         0.023894   
     93. D(C  10,C   9,C   7,H  16)   -179.9158         0.023894   
     94. D(C  10,C   9,C   7,C   4)     -0.0502         0.023894   
     95. D(C   8,C  10,C   9,C   7)     -0.1813         0.024558   
     96. D(O   1,C  10,C   9,H  17)     -0.1295         0.024558   
     97. D(O   1,C  10,C   9,C   7)    179.8424         0.024558   
     98. D(C   9,C  10,C   8,C   6)      0.1790         0.022931   
     99. D(C   9,C  10,C   8,O   0)   -179.9228         0.022931   
    100. D(O   1,C  10,C   8,C   6)   -179.8444         0.022931   
    101. D(C   8,C  10,C   9,H  17)    179.8468         0.024558   
    102. D(O   1,C  10,C   8,O   0)      0.0539         0.022931   
    -----------------------------------------------------------------

Number of atoms                         .... 21
Number of degrees of freedom            .... 102

         *************************************************************
         *                GEOMETRY OPTIMIZATION CYCLE   1            *
         *************************************************************
---------------------------------
CARTESIAN COORDINATES (ANGSTROEM)
---------------------------------
  O      2.249561   -1.841863   -0.165908
  O      3.249468    0.657249   -0.451620
  N     -3.084232    0.242549   -1.357338
  C     -2.188716   -0.077980    0.969998
  C     -0.740375    0.117388    0.607627
  C     -3.047488   -0.629768   -0.178708
  C      0.098468   -0.976667    0.396777
  C     -0.204397    1.402002    0.460742
  C      1.428280   -0.756106    0.043963
  C      1.143233    1.583680    0.103622
  C      2.020984    0.513725   -0.123158
  H     -2.616910    0.869389    1.322475
  H     -2.244929   -0.765330    1.823814
  H     -4.073913   -0.759665    0.181667
  H     -2.691449   -1.619393   -0.486219
  H     -0.256297   -1.995555    0.497450
  H     -0.819276    2.282701    0.617511
  H      1.526577    2.597370   -0.003164
  H     -2.138388    0.248324   -1.757011
  H     -3.222242    1.205217   -1.051837
  H      3.074280   -1.341635   -0.388278

----------------------------
CARTESIAN COORDINATES (A.U.)
----------------------------
  NO LB      ZA    FRAG     MASS         X           Y           Z
   0 O     8.0000    0    15.999    4.251054   -3.480617   -0.313521
   1 O     8.0000    0    15.999    6.140605    1.242021   -0.853438
   2 N     7.0000    0    14.007   -5.828354    0.458351   -2.564997
   3 C     6.0000    0    12.011   -4.136074   -0.147361    1.833031
   4 C     6.0000    0    12.011   -1.399106    0.221831    1.148249
   5 C     6.0000    0    12.011   -5.758918   -1.190089   -0.337709
   6 C     6.0000    0    12.011    0.186078   -1.845633    0.749800
   7 C     6.0000    0    12.011   -0.386254    2.649400    0.870676
   8 C     6.0000    0    12.011    2.699058   -1.428833    0.083078
   9 C     6.0000    0    12.011    2.160397    2.992721    0.195817
  10 C     6.0000    0    12.011    3.819106    0.970800   -0.232735
  11 H     1.0000    0     1.008   -4.945243    1.642907    2.499116
  12 H     1.0000    0     1.008   -4.242301   -1.446264    3.446509
  13 H     1.0000    0     1.008   -7.698580   -1.435559    0.343301
  14 H     1.0000    0     1.008   -5.086102   -3.060209   -0.918821
  15 H     1.0000    0     1.008   -0.484331   -3.771052    0.940044
  16 H     1.0000    0     1.008   -1.548207    4.313680    1.166927
  17 H     1.0000    0     1.008    2.884812    4.908318   -0.005979
  18 H     1.0000    0     1.008   -4.040968    0.469264   -3.320270
  19 H     1.0000    0     1.008   -6.089155    2.277530   -1.987684
  20 H     1.0000    0     1.008    5.809547   -2.535323   -0.733739

--------------------------------
INTERNAL COORDINATES (ANGSTROEM)
--------------------------------
 O      0   0   0     0.000000000000     0.00000000     0.00000000
 O      1   0   0     2.706844314721     0.00000000     0.00000000
 N      1   2   0     5.849241540362    89.21728150     0.00000000
 C      3   1   2     2.514195816358    56.02865706   264.72734055
 C      4   3   1     1.505713468541    95.92883293    28.61096242
 C      3   1   2     1.466784151443    66.51885507   227.53346210
 C      5   4   3     1.394658253542   120.87391087   261.83210662
 C      5   4   3     1.399671657463   120.84259906    81.19555951
 C      1   2   3     1.377467451757    60.56679486   334.62443466
 C      8   5   4     1.405933215691   120.81765436   180.91857495
 C      2   1   3     1.279710655686    60.97109498    25.40356014
 H      4   3   1     1.097769629442    92.76659729   138.96033254
 H      4   3   1     1.097548033448   141.41749220   258.63941438
 H      6   3   1     1.095578227175   108.14109311   184.31688471
 H      6   3   1     1.095757466444   108.64752176   299.92742920
 H      7   5   4     1.083570955082   121.78032834   359.23394716
 H      8   5   4     1.085487647375   120.83554402     0.78087969
 H     10   8   5     1.089001050611   118.85601595   179.92156234
 H      3   1   2     1.026836272192    40.65317097    52.46175714
 H      3   1   2     1.019366126240   113.51238260   328.86460409
 H      1   2   3     0.989867616323    37.05596599   154.71246535

---------------------------
INTERNAL COORDINATES (A.U.)
---------------------------
 O      0   0   0     0.000000000000     0.00000000     0.00000000
 O      1   0   0     5.115194441984     0.00000000     0.00000000
 N      1   2   0    11.053464602439    89.21728150     0.00000000
 C      3   1   2     4.751141539968    56.02865706   264.72734055
 C      4   3   1     2.845386091699    95.92883293    28.61096242
 C      3   1   2     2.771820343804    66.51885507   227.53346210
 C      5   4   3     2.635522149608   120.87391087   261.83210662
 C      5   4   3     2.644996110017   120.84259906    81.19555951
 C      1   2   3     2.603036242212    60.56679486   334.62443466
 C      8   5   4     2.656828740240   120.81765436   180.91857495
 C      2   1   3     2.418302669907    60.97109498    25.40356014
 H      4   3   1     2.074483957782    92.76659729   138.96033254
 H      4   3   1     2.074065202040   141.41749220   258.63941438
 H      6   3   1     2.070342807647   108.14109311   184.31688471
 H      6   3   1     2.070681520778   108.64752176   299.92742920
 H      7   5   4     2.047652351777   121.78032834   359.23394716
 H      8   5   4     2.051274375293   120.83554402     0.78087969
 H     10   8   5     2.057913745207   118.85601595   179.92156234
 H      3   1   2     1.940439338820    40.65317097    52.46175714
 H      3   1   2     1.926322808789   113.51238260   328.86460409
 H      1   2   3     1.870578703688    37.05596599   154.71246535

---------------------
BASIS SET INFORMATION
---------------------
There are 4 groups of distinct atoms

 Group   1 Type O   : 11s6p2d1f contracted to 5s3p2d1f pattern {62111/411/11/1}
 Group   2 Type N   : 11s6p2d1f contracted to 5s3p2d1f pattern {62111/411/11/1}
 Group   3 Type C   : 11s6p2d1f contracted to 5s3p2d1f pattern {62111/411/11/1}
 Group   4 Type H   : 5s1p contracted to 3s1p pattern {311/1}

Atom   0O    basis set group =>   1
Atom   1O    basis set group =>   1
Atom   2N    basis set group =>   2
Atom   3C    basis set group =>   3
Atom   4C    basis set group =>   3
Atom   5C    basis set group =>   3
Atom   6C    basis set group =>   3
Atom   7C    basis set group =>   3
Atom   8C    basis set group =>   3
Atom   9C    basis set group =>   3
Atom  10C    basis set group =>   3
Atom  11H    basis set group =>   4
Atom  12H    basis set group =>   4
Atom  13H    basis set group =>   4
Atom  14H    basis set group =>   4
Atom  15H    basis set group =>   4
Atom  16H    basis set group =>   4
Atom  17H    basis set group =>   4
Atom  18H    basis set group =>   4
Atom  19H    basis set group =>   4
Atom  20H    basis set group =>   4
---------------------------------
AUXILIARY/J BASIS SET INFORMATION
---------------------------------
There are 4 groups of distinct atoms

 Group   1 Type O   : 12s5p4d2f1g contracted to 6s4p3d1f1g pattern {711111/2111/211/2/1}
 Group   2 Type N   : 12s5p4d2f1g contracted to 6s4p3d1f1g pattern {711111/2111/211/2/1}
 Group   3 Type C   : 12s5p4d2f1g contracted to 6s4p3d1f1g pattern {711111/2111/211/2/1}
 Group   4 Type H   : 5s2p1d contracted to 3s1p1d pattern {311/2/1}

Atom   0O    basis set group =>   1
Atom   1O    basis set group =>   1
Atom   2N    basis set group =>   2
Atom   3C    basis set group =>   3
Atom   4C    basis set group =>   3
Atom   5C    basis set group =>   3
Atom   6C    basis set group =>   3
Atom   7C    basis set group =>   3
Atom   8C    basis set group =>   3
Atom   9C    basis set group =>   3
Atom  10C    basis set group =>   3
Atom  11H    basis set group =>   4
Atom  12H    basis set group =>   4
Atom  13H    basis set group =>   4
Atom  14H    basis set group =>   4
Atom  15H    basis set group =>   4
Atom  16H    basis set group =>   4
Atom  17H    basis set group =>   4
Atom  18H    basis set group =>   4
Atom  19H    basis set group =>   4
Atom  20H    basis set group =>   4
No protocol specified


           ************************************************************
           *        Program running with 16 parallel MPI-processes    *
           *              working on a common directory               *
           ************************************************************
------------------------------------------------------------------------------
                           ORCA GTO INTEGRAL CALCULATION
                           -- RI-GTO INTEGRALS CHOSEN --
------------------------------------------------------------------------------
------------------------------------------------------------------------------
                   ___                                                        
                  /   \      - P O W E R E D   B Y -                         
                 /     \                                                     
                 |  |  |   _    _      __       _____    __    __             
                 |  |  |  | |  | |    /  \     |  _  \  |  |  /  |          
                  \  \/   | |  | |   /    \    | | | |  |  | /  /          
                 / \  \   | |__| |  /  /\  \   | |_| |  |  |/  /          
                |  |  |   |  __  | /  /__\  \  |    /   |      \           
                |  |  |   | |  | | |   __   |  |    \   |  |\   \          
                \     /   | |  | | |  |  |  |  | |\  \  |  | \   \       
                 \___/    |_|  |_| |__|  |__|  |_| \__\ |__|  \__/        
                                                                              
                      - O R C A' S   B I G   F R I E N D -                    
                                      &                                       
                       - I N T E G R A L  F E E D E R -                       
                                                                              
 v1 FN, 2020, v2 2021                                                         
------------------------------------------------------------------------------


Reading SHARK input file 1_M0005.SHARKINP.tmp ... ok
----------------------
SHARK INTEGRAL PACKAGE
----------------------

Number of atoms                             ...     21
Number of basis functions                   ...    401
Number of shells                            ...    161
Maximum angular momentum                    ...      3
Integral batch strategy                     ... SHARK/LIBINT Hybrid
RI-J (if used) integral strategy            ... SPLIT-RIJ (Revised 2003 algorithm where possible)
Printlevel                                  ...      1
Contraction scheme used                     ... SEGMENTED contraction
Coulomb Range Separation                    ... NOT USED
Exchange Range Separation                   ... NOT USED
Finite Nucleus Model                        ... NOT USED
Auxiliary Coulomb fitting basis             ... AVAILABLE
   # of basis functions in Aux-J            ...    649
   # of shells in Aux-J                     ...    215
   Maximum angular momentum in Aux-J        ...      4
Auxiliary J/K fitting basis                 ... NOT available
Auxiliary Correlation fitting basis         ... NOT available
Auxiliary 'external' fitting basis          ... NOT available
Integral threshold                          ...     2.500000e-11
Primitive cut-off                           ...     2.500000e-12
Primitive pair pre-selection threshold      ...     2.500000e-12

Calculating pre-screening integrals         ... done (  0.1 sec) Dimension = 161
Organizing shell pair data                  ... done (  0.3 sec)
Shell pair information
Total number of shell pairs                 ...     13041
Shell pairs after pre-screening             ...     11189
Total number of primitive shell pairs       ...     39612
Primitive shell pairs kept                  ...     24571
          la=0 lb=0:   3012 shell pairs
          la=1 lb=0:   3196 shell pairs
          la=1 lb=1:    867 shell pairs
          la=2 lb=0:   1593 shell pairs
          la=2 lb=1:    848 shell pairs
          la=2 lb=2:    221 shell pairs
          la=3 lb=0:    769 shell pairs
          la=3 lb=1:    417 shell pairs
          la=3 lb=2:    209 shell pairs
          la=3 lb=3:     57 shell pairs

Calculating one electron integrals          ... done (  0.1 sec)
Calculating RI/J V-Matrix + Cholesky decomp.... done (  0.6 sec)
Calculating Nuclear repulsion               ... done (  0.0 sec) ENN=    590.438307839059 Eh

SHARK setup successfully completed in   1.7 seconds

Maximum memory used throughout the entire GTOINT-calculation: 24.1 MB
No protocol specified


           ************************************************************
           *        Program running with 16 parallel MPI-processes    *
           *              working on a common directory               *
           ************************************************************
-------------------------------------------------------------------------------
                                 ORCA SCF
-------------------------------------------------------------------------------

------------
SCF SETTINGS
------------
Hamiltonian:
 Density Functional     Method          .... DFT(GTOs)
 Exchange Functional    Exchange        .... PBE
   PBE kappa parameter   XKappa         ....  0.804000
   PBE mue parameter    XMuePBE         ....  0.219520
 Correlation Functional Correlation     .... PBE
   PBE beta parameter  CBetaPBE         ....  0.066725
 LDA part of GGA corr.  LDAOpt          .... PW91-LDA
 Gradients option       PostSCFGGA      .... off
   Density functional embedding theory  .... OFF
   NL short-range parameter             ....  6.400000
 RI-approximation to the Coulomb term is turned on
   Number of AuxJ basis functions       .... 649


General Settings:
 Integral files         IntName         .... 1_M0005
 Hartree-Fock type      HFTyp           .... RHF
 Total Charge           Charge          ....   -1
 Multiplicity           Mult            ....    1
 Number of Electrons    NEL             ....   82
 Basis Dimension        Dim             ....  401
 Nuclear Repulsion      ENuc            ....    590.4383078391 Eh

Convergence Acceleration:
 DIIS                   CNVDIIS         .... on
   Start iteration      DIISMaxIt       ....    12
   Startup error        DIISStart       ....  0.200000
   # of expansion vecs  DIISMaxEq       ....     5
   Bias factor          DIISBfac        ....   1.050
   Max. coefficient     DIISMaxC        ....  10.000
 Trust-Rad. Augm. Hess. CNVTRAH         .... auto
   Auto Start mean grad. ratio tolernc. ....  1.125000
   Auto Start start iteration           ....    20
   Auto Start num. interpolation iter.  ....    10
   Max. Number of Micro iterations      ....    16
   Max. Number of Macro iterations      .... Maxiter - #DIIS iter
   Number of Davidson start vectors     ....     2
   Converg. threshold I  (grad. norm)   ....   1.000e-05
   Converg. threshold II (energy diff.) ....   1.000e-08
   Grad. Scal. Fac. for Micro threshold ....   0.100
   Minimum threshold for Micro iter.    ....   0.010
   NR start threshold (gradient norm)   ....   0.001
   Initial trust radius                 ....   0.400
   Minimum AH scaling param. (alpha)    ....   1.000
   Maximum AH scaling param. (alpha)    .... 1000.000
   Orbital update algorithm             .... Taylor
   White noise on init. David. guess    .... on
   Maximum white noise                  ....   0.010
   Quad. conv. algorithm                .... NR
 SOSCF                  CNVSOSCF        .... on
   Start iteration      SOSCFMaxIt      ....   150
   Startup grad/error   SOSCFStart      ....  0.003300
 Level Shifting         CNVShift        .... on
   Level shift para.    LevelShift      ....    0.2500
   Turn off err/grad.   ShiftErr        ....    0.0010
 Zerner damping         CNVZerner       .... off
 Static damping         CNVDamp         .... on
   Fraction old density DampFac         ....    0.7000
   Max. Damping (<1)    DampMax         ....    0.9800
   Min. Damping (>=0)   DampMin         ....    0.0000
   Turn off err/grad.   DampErr         ....    0.1000
 Fernandez-Rico         CNVRico         .... off

SCF Procedure:
 Maximum # iterations   MaxIter         ....   125
 SCF integral mode      SCFMode         .... Direct
   Integral package                     .... SHARK and LIBINT hybrid scheme
 Reset frequency        DirectResetFreq ....    20
 Integral Threshold     Thresh          ....  2.500e-11 Eh
 Primitive CutOff       TCut            ....  2.500e-12 Eh

Convergence Tolerance:
 Convergence Check Mode ConvCheckMode   .... Total+1el-Energy
 Convergence forced     ConvForced      .... 0
 Energy Change          TolE            ....  1.000e-08 Eh
 1-El. energy change                    ....  1.000e-05 Eh
 Orbital Gradient       TolG            ....  1.000e-05
 Orbital Rotation angle TolX            ....  1.000e-05
 DIIS Error             TolErr          ....  5.000e-07


Diagonalization of the overlap matrix:
Smallest eigenvalue                        ... 1.021e-05
Time for diagonalization                   ...    0.033 sec
Threshold for overlap eigenvalues          ... 1.000e-08
Number of eigenvalues below threshold      ... 0
Time for construction of square roots      ...    0.027 sec
Total time needed                          ...    0.061 sec

Time for model grid setup =    0.137 sec

------------------------------
INITIAL GUESS: MODEL POTENTIAL
------------------------------
Loading Hartree-Fock densities                     ... done
Calculating cut-offs                               ... done
Initializing the effective Hamiltonian             ... done
Setting up the integral package (SHARK)            ... done
Starting the Coulomb interaction                   ... done (   0.1 sec)
Reading the grid                                   ... done
Mapping shells                                     ... done
Starting the XC term evaluation                    ... done (   0.1 sec)
  promolecular density results
     # of electrons  =     80.991535115
     EX              =    -66.699733493
     EC              =     -2.703985876
     EX+EC           =    -69.403719369
Transforming the Hamiltonian                       ... done (   0.1 sec)
Diagonalizing the Hamiltonian                      ... done (   0.0 sec)
Back transforming the eigenvectors                 ... done (   0.0 sec)
Now organizing SCF variables                       ... done
                      ------------------
                      INITIAL GUESS DONE (   0.5 sec)
                      ------------------
-------------------
DFT GRID GENERATION
-------------------

General Integration Accuracy     IntAcc      ... 4.388
Radial Grid Type                 RadialGrid  ... OptM3 with GC (2021)
Angular Grid (max. ang.)         AngularGrid ... 4 (Lebedev-302)
Angular grid pruning method      GridPruning ... 4 (adaptive)
Weight generation scheme         WeightScheme... Becke
Basis function cutoff            BFCut       ... 1.0000e-11
Integration weight cutoff        WCut        ... 1.0000e-14
Angular grids for H and He will be reduced by one unit
Partially contracted basis set               ... off
Rotationally invariant grid construction     ... off

Total number of grid points                  ...    98107
Total number of batches                      ...     1543
Average number of points per batch           ...       63
Average number of grid points per atom       ...     4672
Time for grid setup =    0.881 sec


--------------------
CPCM SOLVATION MODEL
--------------------
CPCM parameters:
  Epsilon                                         ...      80.4000
  Refrac                                          ...       1.3300
  Rsolv                                           ...       1.3000
  Surface type                                    ... GAUSSIAN VDW
  Epsilon function type                           ...         CPCM
Radii:
 Radius for O  used is    3.4469 Bohr (=   1.8240 Ang.)
 Radius for N  used is    3.5149 Bohr (=   1.8600 Ang.)
 Radius for C  used is    3.8550 Bohr (=   2.0400 Ang.)
 Radius for H  used is    2.4944 Bohr (=   1.3200 Ang.)
Calculating surface                               ...        done! (  0.0s)
GEPOL surface points                              ...         1175
GEPOL Volume                                      ...    1263.1464
GEPOL Surface-area                                ...     703.8156
Calculating surface distance matrix               ...        done! (  0.0s)
Performing Cholesky decomposition & store         ...        done! (  0.2s)
Overall time for CPCM initialization              ...                 0.3s
--------------
SCF ITERATIONS
--------------
ITER       Energy         Delta-E        Max-DP      RMS-DP      [F,P]     Damp
               ***  Starting incremental Fock matrix formation  ***
  0   -515.3936820379   0.000000000000 0.85807204  0.00690436  0.3284023 0.7000
  1   -515.5889829022  -0.195300864204 0.70944503  0.00591233  0.1043820 0.7000
                               ***Turning on DIIS***
  2   -515.6524421794  -0.063459277212 0.53181712  0.00505888  0.0285479 0.0000
  3   -515.7564067030  -0.103964523684 0.66085333  0.00528988  0.0633086 0.0000
  4   -515.7826307718  -0.026224068740 0.13520907  0.00109933  0.0275505 0.0000
  5   -515.7852967845  -0.002666012716 0.07980538  0.00064561  0.0097076 0.0000
                      *** Initiating the SOSCF procedure ***
                           *** Shutting down DIIS ***
                      *** Re-Reading the Fockian *** 
                      *** Removing any level shift *** 
ITER      Energy       Delta-E        Grad      Rot      Max-DP    RMS-DP
  6   -515.78549593  -0.0001991446  0.000325  0.000325  0.020971  0.000180
               *** Restarting incremental Fock matrix formation ***
  7   -515.78550969  -0.0000137625  0.000201  0.001119  0.014476  0.000120
  8   -515.78550596   0.0000037317  0.000389  0.001155  0.005411  0.000041
  9   -515.78551315  -0.0000071892  0.000114  0.000663  0.003354  0.000023
 10   -515.78551197   0.0000011780  0.000178  0.000319  0.002495  0.000020
 11   -515.78551348  -0.0000015121  0.000015  0.000130  0.000834  0.000008
 12   -515.78551346   0.0000000188  0.000031  0.000077  0.000178  0.000001
                  ***Gradient check signals convergence***
              ***Rediagonalizing the Fockian in SOSCF/NRSCF***

               *****************************************************
               *                     SUCCESS                       *
               *           SCF CONVERGED AFTER  13 CYCLES          *
               *****************************************************


----------------
TOTAL SCF ENERGY
----------------

Total Energy       :         -515.78551350 Eh          -14035.23736 eV

Components:
Nuclear Repulsion  :          590.43830784 Eh           16066.64317 eV
Electronic Energy  :        -1106.22382134 Eh          -30101.88053 eV
One Electron Energy:        -1886.26804156 Eh          -51327.96287 eV
Two Electron Energy:          780.04422022 Eh           21226.08235 eV
CPCM Dielectric    :           -0.09475287 Eh              -2.57836 eV

Virial components:
Potential Energy   :        -1029.56345633 Eh          -28015.84594 eV
Kinetic Energy     :          513.77794283 Eh           13980.60858 eV
Virial Ratio       :            2.00390747


DFT components:
N(Alpha)           :       40.999999979361 electrons
N(Beta)            :       40.999999979361 electrons
N(Total)           :       81.999999958722 electrons
E(X)               :      -68.235635993145 Eh       
E(C)               :       -2.744881011113 Eh       
E(XC)              :      -70.980517004258 Eh       
DFET-embed. en.    :        0.000000000000 Eh       
CPCM Solvation Model Properties:
Surface-charge          :            0.96452855
Charge-correction       :           -0.00464408 Eh              -0.12637 eV
Free-energy (cav+disp)  :  This term is not implemented in the current solvation scheme

---------------
SCF CONVERGENCE
---------------

  Last Energy change         ...   -3.6051e-08  Tolerance :   1.0000e-08
  Last MAX-Density change    ...    2.5923e-04  Tolerance :   1.0000e-07
  Last RMS-Density change    ...    1.9695e-06  Tolerance :   5.0000e-09
  Last Orbital Gradient      ...    2.4489e-06  Tolerance :   1.0000e-05
  Last Orbital Rotation      ...    1.0320e-05  Tolerance :   1.0000e-05

             **** THE GBW FILE WAS UPDATED (1_M0005.gbw) ****
             **** DENSITY 1_M0005.scfp WAS UPDATED ****
             **** ENERGY FILE WAS UPDATED (1_M0005.en.tmp) ****
             **** THE GBW FILE WAS UPDATED (1_M0005.gbw) ****
             **** DENSITY 1_M0005.scfp WAS UPDATED ****
----------------
ORBITAL ENERGIES
----------------

  NO   OCC          E(Eh)            E(eV) 
   0   2.0000     -18.750810      -510.2355 
   1   2.0000     -18.668173      -507.9868 
   2   2.0000     -13.955828      -379.7574 
   3   2.0000      -9.900399      -269.4035 
   4   2.0000      -9.891333      -269.1569 
   5   2.0000      -9.890883      -269.1446 
   6   2.0000      -9.864139      -268.4169 
   7   2.0000      -9.857507      -268.2364 
   8   2.0000      -9.854260      -268.1481 
   9   2.0000      -9.852909      -268.1113 
  10   2.0000      -9.843250      -267.8484 
  11   2.0000      -0.947469       -25.7819 
  12   2.0000      -0.867502       -23.6059 
  13   2.0000      -0.797685       -21.7061 
  14   2.0000      -0.741617       -20.1804 
  15   2.0000      -0.667819       -18.1723 
  16   2.0000      -0.638847       -17.3839 
  17   2.0000      -0.603699       -16.4275 
  18   2.0000      -0.540995       -14.7212 
  19   2.0000      -0.516361       -14.0509 
  20   2.0000      -0.505823       -13.7641 
  21   2.0000      -0.440853       -11.9962 
  22   2.0000      -0.430784       -11.7222 
  23   2.0000      -0.407146       -11.0790 
  24   2.0000      -0.392380       -10.6772 
  25   2.0000      -0.376066       -10.2333 
  26   2.0000      -0.370024       -10.0689 
  27   2.0000      -0.352107        -9.5813 
  28   2.0000      -0.347781        -9.4636 
  29   2.0000      -0.339423        -9.2362 
  30   2.0000      -0.331671        -9.0252 
  31   2.0000      -0.307941        -8.3795 
  32   2.0000      -0.299858        -8.1595 
  33   2.0000      -0.283036        -7.7018 
  34   2.0000      -0.280669        -7.6374 
  35   2.0000      -0.268273        -7.3001 
  36   2.0000      -0.251205        -6.8356 
  37   2.0000      -0.201312        -5.4780 
  38   2.0000      -0.183566        -4.9951 
  39   2.0000      -0.177719        -4.8360 
  40   2.0000      -0.134599        -3.6626 
  41   0.0000      -0.010017        -0.2726 
  42   0.0000       0.012245         0.3332 
  43   0.0000       0.027521         0.7489 
  44   0.0000       0.048280         1.3138 
  45   0.0000       0.053271         1.4496 
  46   0.0000       0.059952         1.6314 
  47   0.0000       0.069785         1.8989 
  48   0.0000       0.085223         2.3190 
  49   0.0000       0.091710         2.4956 
  50   0.0000       0.108806         2.9608 
  51   0.0000       0.123505         3.3607 
  52   0.0000       0.129030         3.5111 
  53   0.0000       0.137430         3.7396 
  54   0.0000       0.140926         3.8348 
  55   0.0000       0.151484         4.1221 
  56   0.0000       0.156412         4.2562 
  57   0.0000       0.173380         4.7179 
  58   0.0000       0.185330         5.0431 
  59   0.0000       0.192150         5.2287 
  60   0.0000       0.207548         5.6477 
  61   0.0000       0.217279         5.9125 
  62   0.0000       0.222227         6.0471 
  63   0.0000       0.232092         6.3155 
  64   0.0000       0.235851         6.4178 
  65   0.0000       0.244441         6.6516 
  66   0.0000       0.256268         6.9734 
  67   0.0000       0.267878         7.2893 
  68   0.0000       0.272600         7.4178 
  69   0.0000       0.281967         7.6727 
  70   0.0000       0.289347         7.8735 
  71   0.0000       0.302047         8.2191 
  72   0.0000       0.310377         8.4458 
  73   0.0000       0.322327         8.7710 
  74   0.0000       0.326611         8.8875 
  75   0.0000       0.328867         8.9489 
  76   0.0000       0.334450         9.1008 
  77   0.0000       0.337436         9.1821 
  78   0.0000       0.344583         9.3766 
  79   0.0000       0.355365         9.6700 
  80   0.0000       0.360643         9.8136 
  81   0.0000       0.372895        10.1470 
  82   0.0000       0.388576        10.5737 
  83   0.0000       0.398731        10.8500 
  84   0.0000       0.408301        11.1104 
  85   0.0000       0.409994        11.1565 
  86   0.0000       0.418570        11.3899 
  87   0.0000       0.421648        11.4736 
  88   0.0000       0.429319        11.6824 
  89   0.0000       0.433340        11.7918 
  90   0.0000       0.440404        11.9840 
  91   0.0000       0.452768        12.3204 
  92   0.0000       0.459687        12.5087 
  93   0.0000       0.463344        12.6082 
  94   0.0000       0.468090        12.7374 
  95   0.0000       0.483177        13.1479 
  96   0.0000       0.486609        13.2413 
  97   0.0000       0.502144        13.6640 
  98   0.0000       0.517099        14.0710 
  99   0.0000       0.519527        14.1370 
 100   0.0000       0.525072        14.2879 
 101   0.0000       0.545408        14.8413 
 102   0.0000       0.566955        15.4276 
 103   0.0000       0.578910        15.7529 
 104   0.0000       0.582172        15.8417 
 105   0.0000       0.596157        16.2223 
 106   0.0000       0.609011        16.5720 
 107   0.0000       0.613243        16.6872 
 108   0.0000       0.625303        17.0154 
 109   0.0000       0.640621        17.4322 
 110   0.0000       0.645046        17.5526 
 111   0.0000       0.667555        18.1651 
 112   0.0000       0.690809        18.7979 
 113   0.0000       0.691289        18.8109 
 114   0.0000       0.712581        19.3903 
 115   0.0000       0.723275        19.6813 
 116   0.0000       0.723360        19.6836 
 117   0.0000       0.750498        20.4221 
 118   0.0000       0.762601        20.7514 
 119   0.0000       0.770815        20.9749 
 120   0.0000       0.789212        21.4756 
 121   0.0000       0.809800        22.0358 
 122   0.0000       0.819992        22.3131 
 123   0.0000       0.822449        22.3800 
 124   0.0000       0.842862        22.9354 
 125   0.0000       0.846719        23.0404 
 126   0.0000       0.861616        23.4458 
 127   0.0000       0.869567        23.6621 
 128   0.0000       0.879968        23.9452 
 129   0.0000       0.904495        24.6126 
 130   0.0000       0.923311        25.1246 
 131   0.0000       0.945676        25.7332 
 132   0.0000       0.969101        26.3706 
 133   0.0000       0.977606        26.6020 
 134   0.0000       1.007358        27.4116 
 135   0.0000       1.031602        28.0713 
 136   0.0000       1.035383        28.1742 
 137   0.0000       1.056680        28.7537 
 138   0.0000       1.078991        29.3608 
 139   0.0000       1.088812        29.6281 
 140   0.0000       1.093689        29.7608 
 141   0.0000       1.125271        30.6202 
 142   0.0000       1.128688        30.7132 
 143   0.0000       1.155332        31.4382 
 144   0.0000       1.163633        31.6641 
 145   0.0000       1.188592        32.3432 
 146   0.0000       1.203585        32.7512 
 147   0.0000       1.205911        32.8145 
 148   0.0000       1.215273        33.0693 
 149   0.0000       1.233002        33.5517 
 150   0.0000       1.248380        33.9701 
 151   0.0000       1.257678        34.2231 
 152   0.0000       1.296999        35.2931 
 153   0.0000       1.299153        35.3518 
 154   0.0000       1.315990        35.8099 
 155   0.0000       1.324862        36.0513 
 156   0.0000       1.335223        36.3333 
 157   0.0000       1.343111        36.5479 
 158   0.0000       1.369393        37.2631 
 159   0.0000       1.374927        37.4137 
 160   0.0000       1.399110        38.0717 
 161   0.0000       1.419900        38.6375 
 162   0.0000       1.437900        39.1272 
 163   0.0000       1.462455        39.7954 
 164   0.0000       1.472034        40.0561 
 165   0.0000       1.481037        40.3011 
 166   0.0000       1.501857        40.8676 
 167   0.0000       1.511557        41.1316 
 168   0.0000       1.520417        41.3726 
 169   0.0000       1.543498        42.0007 
 170   0.0000       1.554832        42.3091 
 171   0.0000       1.570760        42.7426 
 172   0.0000       1.592798        43.3422 
 173   0.0000       1.607725        43.7484 
 174   0.0000       1.610375        43.8205 
 175   0.0000       1.651257        44.9330 
 176   0.0000       1.669121        45.4191 
 177   0.0000       1.674837        45.5746 
 178   0.0000       1.681913        45.7672 
 179   0.0000       1.683265        45.8040 
 180   0.0000       1.701482        46.2997 
 181   0.0000       1.717554        46.7370 
 182   0.0000       1.735041        47.2129 
 183   0.0000       1.760737        47.9121 
 184   0.0000       1.770933        48.1895 
 185   0.0000       1.785431        48.5841 
 186   0.0000       1.805803        49.1384 
 187   0.0000       1.814950        49.3873 
 188   0.0000       1.825486        49.6740 
 189   0.0000       1.845168        50.2096 
 190   0.0000       1.852666        50.4136 
 191   0.0000       1.892101        51.4867 
 192   0.0000       1.901020        51.7294 
 193   0.0000       1.922189        52.3054 
 194   0.0000       1.941231        52.8236 
 195   0.0000       1.950921        53.0873 
 196   0.0000       1.955111        53.2013 
 197   0.0000       1.972119        53.6641 
 198   0.0000       1.983944        53.9859 
 199   0.0000       1.987807        54.0910 
 200   0.0000       2.007203        54.6188 
 201   0.0000       2.010246        54.7016 
 202   0.0000       2.046009        55.6747 
 203   0.0000       2.058075        56.0031 
 204   0.0000       2.070259        56.3346 
 205   0.0000       2.096306        57.0434 
 206   0.0000       2.107673        57.3527 
 207   0.0000       2.123068        57.7716 
 208   0.0000       2.139316        58.2137 
 209   0.0000       2.176298        59.2201 
 210   0.0000       2.188438        59.5504 
 211   0.0000       2.203853        59.9699 
 212   0.0000       2.215505        60.2869 
 213   0.0000       2.221063        60.4382 
 214   0.0000       2.246592        61.1329 
 215   0.0000       2.254963        61.3606 
 216   0.0000       2.281130        62.0727 
 217   0.0000       2.326829        63.3162 
 218   0.0000       2.342502        63.7427 
 219   0.0000       2.369073        64.4657 
 220   0.0000       2.378081        64.7109 
 221   0.0000       2.389204        65.0136 
 222   0.0000       2.402862        65.3852 
 223   0.0000       2.419244        65.8310 
 224   0.0000       2.437340        66.3234 
 225   0.0000       2.444996        66.5317 
 226   0.0000       2.472800        67.2883 
 227   0.0000       2.489922        67.7542 
 228   0.0000       2.499046        68.0025 
 229   0.0000       2.520868        68.5963 
 230   0.0000       2.545803        69.2748 
 231   0.0000       2.550700        69.4081 
 232   0.0000       2.566593        69.8405 
 233   0.0000       2.582857        70.2831 
 234   0.0000       2.597885        70.6920 
 235   0.0000       2.610895        71.0461 
 236   0.0000       2.618908        71.2641 
 237   0.0000       2.630679        71.5844 
 238   0.0000       2.641032        71.8661 
 239   0.0000       2.653263        72.1990 
 240   0.0000       2.670321        72.6631 
 241   0.0000       2.688662        73.1622 
 242   0.0000       2.711465        73.7827 
 243   0.0000       2.729929        74.2852 
 244   0.0000       2.743514        74.6548 
 245   0.0000       2.761198        75.1360 
 246   0.0000       2.764330        75.2212 
 247   0.0000       2.768264        75.3283 
 248   0.0000       2.787249        75.8449 
 249   0.0000       2.790344        75.9291 
 250   0.0000       2.816687        76.6459 
 251   0.0000       2.826338        76.9086 
 252   0.0000       2.847752        77.4913 
 253   0.0000       2.851643        77.5972 
 254   0.0000       2.860527        77.8389 
 255   0.0000       2.879688        78.3603 
 256   0.0000       2.913109        79.2697 
 257   0.0000       2.916496        79.3619 
 258   0.0000       2.928072        79.6769 
 259   0.0000       2.950572        80.2891 
 260   0.0000       2.964381        80.6649 
 261   0.0000       2.974123        80.9300 
 262   0.0000       3.004049        81.7443 
 263   0.0000       3.017421        82.1082 
 264   0.0000       3.027547        82.3837 
 265   0.0000       3.031195        82.4830 
 266   0.0000       3.044252        82.8383 
 267   0.0000       3.050255        83.0017 
 268   0.0000       3.080123        83.8144 
 269   0.0000       3.093922        84.1899 
 270   0.0000       3.109651        84.6179 
 271   0.0000       3.114825        84.7587 
 272   0.0000       3.133482        85.2664 
 273   0.0000       3.134944        85.3062 
 274   0.0000       3.152453        85.7826 
 275   0.0000       3.169805        86.2548 
 276   0.0000       3.180202        86.5377 
 277   0.0000       3.211965        87.4020 
 278   0.0000       3.218827        87.5887 
 279   0.0000       3.227772        87.8322 
 280   0.0000       3.245578        88.3167 
 281   0.0000       3.256674        88.6186 
 282   0.0000       3.266935        88.8978 
 283   0.0000       3.279522        89.2403 
 284   0.0000       3.287160        89.4482 
 285   0.0000       3.313547        90.1662 
 286   0.0000       3.318987        90.3142 
 287   0.0000       3.319936        90.3401 
 288   0.0000       3.341621        90.9301 
 289   0.0000       3.355479        91.3072 
 290   0.0000       3.371968        91.7559 
 291   0.0000       3.383368        92.0661 
 292   0.0000       3.391579        92.2896 
 293   0.0000       3.406620        92.6988 
 294   0.0000       3.434113        93.4470 
 295   0.0000       3.445808        93.7652 
 296   0.0000       3.453194        93.9662 
 297   0.0000       3.464375        94.2704 
 298   0.0000       3.468634        94.3863 
 299   0.0000       3.485643        94.8492 
 300   0.0000       3.515704        95.6672 
 301   0.0000       3.560300        96.8807 
 302   0.0000       3.589688        97.6804 
 303   0.0000       3.616473        98.4092 
 304   0.0000       3.636289        98.9485 
 305   0.0000       3.674439        99.9866 
 306   0.0000       3.682783       100.2136 
 307   0.0000       3.697091       100.6030 
 308   0.0000       3.732915       101.5778 
 309   0.0000       3.773404       102.6796 
 310   0.0000       3.794730       103.2598 
 311   0.0000       3.812009       103.7300 
 312   0.0000       3.827626       104.1550 
 313   0.0000       3.852382       104.8286 
 314   0.0000       3.874763       105.4377 
 315   0.0000       3.896437       106.0274 
 316   0.0000       3.907594       106.3310 
 317   0.0000       3.932600       107.0115 
 318   0.0000       3.945713       107.3683 
 319   0.0000       3.993598       108.6713 
 320   0.0000       4.025587       109.5418 
 321   0.0000       4.043120       110.0189 
 322   0.0000       4.053996       110.3148 
 323   0.0000       4.071360       110.7873 
 324   0.0000       4.110908       111.8635 
 325   0.0000       4.116216       112.0079 
 326   0.0000       4.144956       112.7900 
 327   0.0000       4.155204       113.0688 
 328   0.0000       4.158560       113.1602 
 329   0.0000       4.192172       114.0748 
 330   0.0000       4.207054       114.4798 
 331   0.0000       4.233372       115.1959 
 332   0.0000       4.258056       115.8676 
 333   0.0000       4.287796       116.6768 
 334   0.0000       4.330866       117.8489 
 335   0.0000       4.336168       117.9931 
 336   0.0000       4.378255       119.1384 
 337   0.0000       4.412723       120.0763 
 338   0.0000       4.443988       120.9271 
 339   0.0000       4.489155       122.1561 
 340   0.0000       4.522918       123.0749 
 341   0.0000       4.552207       123.8718 
 342   0.0000       4.576600       124.5356 
 343   0.0000       4.605652       125.3262 
 344   0.0000       4.642592       126.3313 
 345   0.0000       4.679957       127.3481 
 346   0.0000       4.722079       128.4943 
 347   0.0000       4.779470       130.0560 
 348   0.0000       4.784583       130.1951 
 349   0.0000       4.803854       130.7195 
 350   0.0000       4.810371       130.8969 
 351   0.0000       4.849958       131.9741 
 352   0.0000       4.880656       132.8094 
 353   0.0000       4.935827       134.3107 
 354   0.0000       4.963524       135.0644 
 355   0.0000       4.984192       135.6267 
 356   0.0000       5.025307       136.7455 
 357   0.0000       5.043904       137.2516 
 358   0.0000       5.131456       139.6340 
 359   0.0000       5.138427       139.8237 
 360   0.0000       5.180376       140.9652 
 361   0.0000       5.196923       141.4155 
 362   0.0000       5.201671       141.5447 
 363   0.0000       5.231931       142.3681 
 364   0.0000       5.287935       143.8920 
 365   0.0000       5.292093       144.0052 
 366   0.0000       5.371330       146.1613 
 367   0.0000       5.446887       148.2173 
 368   0.0000       5.485352       149.2640 
 369   0.0000       5.496563       149.5691 
 370   0.0000       5.521672       150.2523 
 371   0.0000       5.626268       153.0985 
 372   0.0000       5.650082       153.7466 
 373   0.0000       5.701912       155.1569 
 374   0.0000       5.806710       158.0086 
 375   0.0000       5.980728       162.7439 
 376   0.0000       5.984022       162.8335 
 377   0.0000       6.191964       168.4919 
 378   0.0000       6.289904       171.1570 
 379   0.0000       6.294016       171.2689 
 380   0.0000       6.329284       172.2286 
 381   0.0000       6.548326       178.1890 
 382   0.0000       6.580051       179.0523 
 383   0.0000       6.628940       180.3826 
 384   0.0000       6.710680       182.6069 
 385   0.0000       6.744323       183.5224 
 386   0.0000       6.908269       187.9835 
 387   0.0000       6.957900       189.3341 
 388   0.0000       6.980007       189.9356 
 389   0.0000       7.173655       195.2051 
 390   0.0000      22.016893       599.1101 
 391   0.0000      22.178564       603.5094 
 392   0.0000      22.301776       606.8622 
 393   0.0000      22.467181       611.3631 
 394   0.0000      22.529773       613.0663 
 395   0.0000      22.705062       617.8362 
 396   0.0000      22.788724       620.1127 
 397   0.0000      23.278483       633.4397 
 398   0.0000      31.632656       860.7683 
 399   0.0000      43.496059      1183.5879 
 400   0.0000      43.705005      1189.2736 

                    ********************************
                    * MULLIKEN POPULATION ANALYSIS *
                    ********************************

-----------------------
MULLIKEN ATOMIC CHARGES
-----------------------
   0 O :   -0.431411
   1 O :   -0.620182
   2 N :   -0.547223
   3 C :   -0.213946
   4 C :    0.166296
   5 C :   -0.114483
   6 C :   -0.380644
   7 C :   -0.310091
   8 C :    0.139054
   9 C :   -0.269039
  10 C :    0.159229
  11 H :    0.114916
  12 H :    0.083807
  13 H :    0.101020
  14 H :    0.112807
  15 H :    0.095236
  16 H :    0.098041
  17 H :    0.065539
  18 H :    0.234081
  19 H :    0.226015
  20 H :    0.290977
Sum of atomic charges:   -1.0000000

--------------------------------
MULLIKEN REDUCED ORBITAL CHARGES
--------------------------------
  0 O s       :     3.758562  s :     3.758562
      pz      :     1.782024  p :     4.639509
      px      :     1.335863
      py      :     1.521622
      dz2     :     0.004101  d :     0.031874
      dxz     :     0.002733
      dyz     :     0.005748
      dx2y2   :     0.007315
      dxy     :     0.011977
      f0      :     0.000258  f :     0.001466
      f+1     :     0.000246
      f-1     :     0.000216
      f+2     :     0.000055
      f-2     :     0.000208
      f+3     :     0.000104
      f-3     :     0.000379
  1 O s       :     3.779697  s :     3.779697
      pz      :     1.629353  p :     4.812782
      px      :     1.393327
      py      :     1.790101
      dz2     :     0.003232  d :     0.026253
      dxz     :     0.007902
      dyz     :     0.000693
      dx2y2   :     0.008135
      dxy     :     0.006290
      f0      :     0.000132  f :     0.001451
      f+1     :     0.000265
      f-1     :     0.000018
      f+2     :     0.000282
      f-2     :     0.000081
      f+3     :     0.000335
      f-3     :     0.000338
  2 N s       :     3.524917  s :     3.524917
      pz      :     1.396318  p :     3.979260
      px      :     1.422045
      py      :     1.160897
      dz2     :     0.010381  d :     0.041007
      dxz     :     0.007597
      dyz     :     0.007279
      dx2y2   :     0.012487
      dxy     :     0.003264
      f0      :     0.000415  f :     0.002039
      f+1     :     0.000198
      f-1     :     0.000298
      f+2     :     0.000572
      f-2     :     0.000275
      f+3     :     0.000124
      f-3     :     0.000157
  3 C s       :     3.180805  s :     3.180805
      pz      :     0.987261  p :     2.937371
      px      :     0.913308
      py      :     1.036802
      dz2     :     0.015461  d :     0.090467
      dxz     :     0.021378
      dyz     :     0.015929
      dx2y2   :     0.018916
      dxy     :     0.018782
      f0      :     0.000643  f :     0.005303
      f+1     :     0.000872
      f-1     :     0.000600
      f+2     :     0.001269
      f-2     :     0.000509
      f+3     :     0.000686
      f-3     :     0.000723
  4 C s       :     3.138736  s :     3.138736
      pz      :     0.969795  p :     2.553057
      px      :     0.786352
      py      :     0.796909
      dz2     :     0.009886  d :     0.132441
      dxz     :     0.021053
      dyz     :     0.027856
      dx2y2   :     0.038612
      dxy     :     0.035034
      f0      :     0.001281  f :     0.009470
      f+1     :     0.000951
      f-1     :     0.000606
      f+2     :     0.000942
      f-2     :     0.001369
      f+3     :     0.001360
      f-3     :     0.002962
  5 C s       :     3.173173  s :     3.173173
      pz      :     0.864254  p :     2.826499
      px      :     1.021741
      py      :     0.940504
      dz2     :     0.033186  d :     0.107368
      dxz     :     0.023694
      dyz     :     0.019905
      dx2y2   :     0.019635
      dxy     :     0.010948
      f0      :     0.001446  f :     0.007443
      f+1     :     0.000807
      f-1     :     0.001400
      f+2     :     0.001585
      f-2     :     0.001410
      f+3     :     0.000553
      f-3     :     0.000242
  6 C s       :     3.343650  s :     3.343650
      pz      :     1.068509  p :     2.950622
      px      :     0.964397
      py      :     0.917716
      dz2     :     0.007251  d :     0.079375
      dxz     :     0.019712
      dyz     :     0.007416
      dx2y2   :     0.023779
      dxy     :     0.021217
      f0      :     0.001032  f :     0.006997
      f+1     :     0.000993
      f-1     :     0.000651
      f+2     :     0.000631
      f-2     :     0.000883
      f+3     :     0.000955
      f-3     :     0.001852
  7 C s       :     3.270492  s :     3.270492
      pz      :     1.050890  p :     2.940728
      px      :     0.952438
      py      :     0.937400
      dz2     :     0.006966  d :     0.092121
      dxz     :     0.017349
      dyz     :     0.013303
      dx2y2   :     0.017474
      dxy     :     0.037029
      f0      :     0.001024  f :     0.006750
      f+1     :     0.000943
      f-1     :     0.000514
      f+2     :     0.000983
      f-2     :     0.000486
      f+3     :     0.001009
      f-3     :     0.001791
  8 C s       :     3.076547  s :     3.076547
      pz      :     1.006271  p :     2.622751
      px      :     0.814326
      py      :     0.802155
      dz2     :     0.010987  d :     0.146789
      dxz     :     0.030406
      dyz     :     0.028324
      dx2y2   :     0.042692
      dxy     :     0.034380
      f0      :     0.001717  f :     0.014858
      f+1     :     0.001357
      f-1     :     0.001111
      f+2     :     0.001121
      f-2     :     0.002429
      f+3     :     0.002660
      f-3     :     0.004463
  9 C s       :     3.277348  s :     3.277348
      pz      :     1.087348  p :     2.908947
      px      :     0.914120
      py      :     0.907479
      dz2     :     0.007236  d :     0.075932
      dxz     :     0.017461
      dyz     :     0.008137
      dx2y2   :     0.018703
      dxy     :     0.024394
      f0      :     0.000995  f :     0.006812
      f+1     :     0.001004
      f-1     :     0.000579
      f+2     :     0.000651
      f-2     :     0.000812
      f+3     :     0.001100
      f-3     :     0.001671
 10 C s       :     2.988736  s :     2.988736
      pz      :     0.930313  p :     2.664162
      px      :     0.864798
      py      :     0.869051
      dz2     :     0.017631  d :     0.171780
      dxz     :     0.045794
      dyz     :     0.019793
      dx2y2   :     0.033376
      dxy     :     0.055186
      f0      :     0.001652  f :     0.016093
      f+1     :     0.001978
[...]
      px      :     0.966623
      py      :     0.910844
      dz2     :     0.006139  d :     0.079789
      dxz     :     0.020246
      dyz     :     0.007947
      dx2y2   :     0.020760
      dxy     :     0.024697
      f0      :     0.001132  f :     0.006858
      f+1     :     0.000855
      f-1     :     0.000646
      f+2     :     0.000708
      f-2     :     0.000725
      f+3     :     0.000907
      f-3     :     0.001886
  7 C s       :     3.253161  s :     3.253161
      pz      :     1.052025  p :     2.936134
      px      :     0.945104
      py      :     0.939005
      dz2     :     0.006148  d :     0.093180
      dxz     :     0.019965
      dyz     :     0.011873
      dx2y2   :     0.019416
      dxy     :     0.035778
      f0      :     0.001160  f :     0.006745
      f+1     :     0.000797
      f-1     :     0.000505
      f+2     :     0.000960
      f-2     :     0.000485
      f+3     :     0.000888
      f-3     :     0.001949
  8 C s       :     3.054672  s :     3.054672
      pz      :     0.996957  p :     2.649213
      px      :     0.825756
      py      :     0.826501
      dz2     :     0.008993  d :     0.146015
      dxz     :     0.033807
      dyz     :     0.027026
      dx2y2   :     0.041292
      dxy     :     0.034897
      f0      :     0.001823  f :     0.014798
      f+1     :     0.001222
      f-1     :     0.001029
      f+2     :     0.001057
      f-2     :     0.002400
      f+3     :     0.002578
      f-3     :     0.004689
  9 C s       :     3.291825  s :     3.291825
      pz      :     1.102550  p :     2.914736
      px      :     0.903703
      py      :     0.908483
      dz2     :     0.006191  d :     0.075003
      dxz     :     0.017760
      dyz     :     0.007739
      dx2y2   :     0.017879
      dxy     :     0.025434
      f0      :     0.001105  f :     0.006578
      f+1     :     0.000824
      f-1     :     0.000615
      f+2     :     0.000688
      f-2     :     0.000653
      f+3     :     0.000986
      f-3     :     0.001707
 10 C s       :     3.017409  s :     3.017409
      pz      :     0.933804  p :     2.615383
      px      :     0.844952
      py      :     0.836627
      dz2     :     0.013462  d :     0.169225
      dxz     :     0.045760
      dyz     :     0.019297
      dx2y2   :     0.031482
      dxy     :     0.059224
      f0      :     0.001741  f :     0.015166
      f+1     :     0.001602
      f-1     :     0.000620
      f+2     :     0.002181
      f-2     :     0.001257
      f+3     :     0.002186
      f-3     :     0.005579
 11 H s       :     0.881223  s :     0.881223
      pz      :     0.006080  p :     0.020936
      px      :     0.005419
      py      :     0.009437
 12 H s       :     0.889964  s :     0.889964
      pz      :     0.007981  p :     0.020840
      px      :     0.004727
      py      :     0.008132
 13 H s       :     0.869281  s :     0.869281
      pz      :     0.006197  p :     0.020492
      px      :     0.004887
      py      :     0.009408
 14 H s       :     0.873549  s :     0.873549
      pz      :     0.008149  p :     0.020468
      px      :     0.003975
      py      :     0.008343
 15 H s       :     0.885628  s :     0.885628
      pz      :     0.005448  p :     0.021648
      px      :     0.005208
      py      :     0.010992
 16 H s       :     0.879000  s :     0.879000
      pz      :     0.005587  p :     0.021650
      px      :     0.006538
      py      :     0.009525
 17 H s       :     0.904886  s :     0.904886
      pz      :     0.005793  p :     0.021896
      px      :     0.005189
      py      :     0.010914
 18 H s       :     0.730998  s :     0.730998
      pz      :     0.012107  p :     0.035009
      px      :     0.009227
      py      :     0.013676
 19 H s       :     0.731020  s :     0.731020
      pz      :     0.014296  p :     0.035010
      px      :     0.007740
      py      :     0.012974
 20 H s       :     0.652047  s :     0.652047
      pz      :     0.013570  p :     0.050459
      px      :     0.018163
      py      :     0.018726


                     *******************************
                     * LOEWDIN POPULATION ANALYSIS *
                     *******************************

----------------------
LOEWDIN ATOMIC CHARGES
----------------------
   0 O :    0.013977
   1 O :   -0.191903
   2 N :   -0.201677
   3 C :   -0.255664
   4 C :   -0.202027
   5 C :   -0.351753
   6 C :   -0.157801
   7 C :   -0.188158
   8 C :   -0.306112
   9 C :   -0.204165
  10 C :   -0.415414
  11 H :    0.140827
  12 H :    0.139394
  13 H :    0.129874
  14 H :    0.129138
  15 H :    0.145582
  16 H :    0.141992
  17 H :    0.133552
  18 H :    0.156898
  19 H :    0.156767
  20 H :    0.186672

-------------------------------
LOEWDIN REDUCED ORBITAL CHARGES
-------------------------------
  0 O s       :     3.362673  s :     3.362673
      pz      :     1.685899  p :     4.547622
      px      :     1.318538
      py      :     1.543186
      dz2     :     0.007765  d :     0.070828
      dxz     :     0.007455
      dyz     :     0.009834
      dx2y2   :     0.020286
      dxy     :     0.025487
      f0      :     0.000459  f :     0.004900
      f+1     :     0.000515
      f-1     :     0.000405
      f+2     :     0.000081
      f-2     :     0.000690
      f+3     :     0.000894
      f-3     :     0.001855
  1 O s       :     3.448508  s :     3.448508
      pz      :     1.568142  p :     4.677938
      px      :     1.456570
      py      :     1.653226
      dz2     :     0.006971  d :     0.060859
      dxz     :     0.016007
      dyz     :     0.000838
      dx2y2   :     0.020252
      dxy     :     0.016791
      f0      :     0.000417  f :     0.004597
      f+1     :     0.000747
      f-1     :     0.000067
      f+2     :     0.000808
      f-2     :     0.000139
      f+3     :     0.001105
      f-3     :     0.001315
  2 N s       :     3.111191  s :     3.111191
      pz      :     1.496788  p :     3.944455
      px      :     1.264077
      py      :     1.183590
      dz2     :     0.009838  d :     0.136142
      dxz     :     0.026731
      dyz     :     0.029907
      dx2y2   :     0.032530
      dxy     :     0.037135
      f0      :     0.001111  f :     0.009889
      f+1     :     0.000893
      f-1     :     0.000693
      f+2     :     0.002402
      f-2     :     0.000881
      f+3     :     0.001588
      f-3     :     0.002322
  3 C s       :     2.783967  s :     2.783967
      pz      :     1.022492  p :     3.045180
      px      :     1.000668
      py      :     1.022019
      dz2     :     0.054623  d :     0.389166
      dxz     :     0.102960
      dyz     :     0.092701
      dx2y2   :     0.073036
      dxy     :     0.065845
      f0      :     0.006595  f :     0.037351
      f+1     :     0.006383
      f-1     :     0.002999
      f+2     :     0.006178
      f-2     :     0.004759
      f+3     :     0.004581
      f-3     :     0.005856
  4 C s       :     2.714676  s :     2.714676
      pz      :     0.900261  p :     2.908741
      px      :     0.965335
      py      :     1.043145
      dz2     :     0.035606  d :     0.522697
      dxz     :     0.070003
      dyz     :     0.092289
      dx2y2   :     0.169309
      dxy     :     0.155490
      f0      :     0.003899  f :     0.055914
      f+1     :     0.004124
      f-1     :     0.004633
      f+2     :     0.005615
      f-2     :     0.008570
      f+3     :     0.009063
      f-3     :     0.020010
  5 C s       :     2.806717  s :     2.806717
      pz      :     1.038806  p :     3.016937
      px      :     0.924316
      py      :     1.053815
      dz2     :     0.067151  d :     0.477170
      dxz     :     0.134113
      dyz     :     0.095563
      dx2y2   :     0.102663
      dxy     :     0.077681
      f0      :     0.008951  f :     0.050929
      f+1     :     0.008872
      f-1     :     0.003143
      f+2     :     0.009634
      f-2     :     0.004650
      f+3     :     0.007189
      f-3     :     0.008490
  6 C s       :     2.763984  s :     2.763984
      pz      :     0.969257  p :     2.981171
      px      :     1.022206
      py      :     0.989708
      dz2     :     0.031236  d :     0.371476
      dxz     :     0.071884
      dyz     :     0.027624
      dx2y2   :     0.124231
      dxy     :     0.116501
      f0      :     0.002922  f :     0.041170
      f+1     :     0.004277
      f-1     :     0.003411
      f+2     :     0.005622
      f-2     :     0.004867
      f+3     :     0.007866
      f-3     :     0.012205
  7 C s       :     2.767302  s :     2.767302
      pz      :     0.952693  p :     2.981524
      px      :     1.026784
      py      :     1.002047
      dz2     :     0.029867  d :     0.398253
      dxz     :     0.071636
      dyz     :     0.041041
      dx2y2   :     0.108028
      dxy     :     0.147681
      f0      :     0.002864  f :     0.041079
      f+1     :     0.004134
      f-1     :     0.003253
      f+2     :     0.007190
      f-2     :     0.002946
      f+3     :     0.007727
      f-3     :     0.012966
  8 C s       :     2.733285  s :     2.733285
      pz      :     0.912407  p :     2.819077
      px      :     0.990878
      py      :     0.915792
      dz2     :     0.056421  d :     0.662575
      dxz     :     0.111103
      dyz     :     0.100378
      dx2y2   :     0.187148
      dxy     :     0.207525
      f0      :     0.006324  f :     0.091175
      f+1     :     0.006611
      f-1     :     0.007677
      f+2     :     0.007133
      f-2     :     0.016693
      f+3     :     0.018633
      f-3     :     0.028103
  9 C s       :     2.779153  s :     2.779153
      pz      :     0.988736  p :     3.020912
      px      :     1.043529
      py      :     0.988646
      dz2     :     0.031188  d :     0.364712
      dxz     :     0.067310
      dyz     :     0.024748
      dx2y2   :     0.113672
      dxy     :     0.127794
      f0      :     0.002891  f :     0.039388
      f+1     :     0.004263
      f-1     :     0.003357
      f+2     :     0.004994
      f-2     :     0.004315
      f+3     :     0.007805
      f-3     :     0.011763
 10 C s       :     2.732043  s :     2.732043
      pz      :     0.867898  p :     2.829801
      px      :     0.926032
      py      :     1.035871
      dz2     :     0.060928  d :     0.754770
      dxz     :     0.163481
      dyz     :     0.070162
      dx2y2   :     0.204153
      dxy     :     0.256046
      f0      :     0.005984  f :     0.098800
      f+1     :     0.010429
      f-1     :     0.004391
      f+2     :     0.017571
      f-2     :     0.008232
      f+3     :     0.016471
      f-3     :     0.035722
 11 H s       :     0.801399  s :     0.801399
      pz      :     0.016153  p :     0.057774
      px      :     0.014187
      py      :     0.027434
 12 H s       :     0.802655  s :     0.802655
      pz      :     0.021162  p :     0.057950
      px      :     0.012606
      py      :     0.024182
 13 H s       :     0.812155  s :     0.812155
      pz      :     0.016942  p :     0.057971
      px      :     0.013017
      py      :     0.028012
 14 H s       :     0.813047  s :     0.813047
      pz      :     0.022094  p :     0.057815
      px      :     0.010662
      py      :     0.025059
 15 H s       :     0.794964  s :     0.794964
      pz      :     0.015207  p :     0.059454
      px      :     0.014713
      py      :     0.029533
 16 H s       :     0.799196  s :     0.799196
      pz      :     0.015339  p :     0.058812
      px      :     0.017905
      py      :     0.025568
 17 H s       :     0.806791  s :     0.806791
      pz      :     0.015829  p :     0.059657
      px      :     0.014647
      py      :     0.029181
 18 H s       :     0.735454  s :     0.735454
      pz      :     0.037802  p :     0.107648
      px      :     0.025713
      py      :     0.044133
 19 H s       :     0.735563  s :     0.735563
      pz      :     0.046457  p :     0.107669
      px      :     0.022183
      py      :     0.039029
 20 H s       :     0.649427  s :     0.649427
      pz      :     0.036372  p :     0.163901
      px      :     0.065901
      py      :     0.061629


                      *****************************
                      * MAYER POPULATION ANALYSIS *
                      *****************************

  NA   - Mulliken gross atomic population
  ZA   - Total nuclear charge
  QA   - Mulliken gross atomic charge
  VA   - Mayer's total valence
  BVA  - Mayer's bonded valence
  FA   - Mayer's free valence

  ATOM       NA         ZA         QA         VA         BVA        FA
  0 O      8.4336     8.0000    -0.4336     2.0281     2.0281    -0.0000
  1 O      8.6352     8.0000    -0.6352     1.8916     1.8916    -0.0000
  2 N      7.5417     7.0000    -0.5417     2.9352     2.9352     0.0000
  3 C      6.1996     6.0000    -0.1996     3.8294     3.8294    -0.0000
  4 C      5.8165     6.0000     0.1835     3.6478     3.6478     0.0000
  5 C      6.1452     6.0000    -0.1452     3.9303     3.9303     0.0000
  6 C      6.4031     6.0000    -0.4031     3.9580     3.9580     0.0000
  7 C      6.2892     6.0000    -0.2892     3.9157     3.9157    -0.0000
  8 C      5.8647     6.0000     0.1353     3.7094     3.7094    -0.0000
  9 C      6.2881     6.0000    -0.2881     3.8420     3.8420    -0.0000
 10 C      5.8172     6.0000     0.1828     3.9754     3.9754     0.0000
 11 H      0.9022     1.0000     0.0978     0.9832     0.9832    -0.0000
 12 H      0.9108     1.0000     0.0892     0.9800     0.9800     0.0000
 13 H      0.8898     1.0000     0.1102     0.9715     0.9715    -0.0000
 14 H      0.8940     1.0000     0.1060     0.9743     0.9743     0.0000
 15 H      0.9073     1.0000     0.0927     0.9939     0.9939    -0.0000
 16 H      0.9007     1.0000     0.0993     0.9719     0.9719    -0.0000
 17 H      0.9268     1.0000     0.0732     1.0008     1.0008    -0.0000
 18 H      0.7660     1.0000     0.2340     0.9419     0.9419     0.0000
 19 H      0.7660     1.0000     0.2340     0.9422     0.9422     0.0000
 20 H      0.7025     1.0000     0.2975     0.9812     0.9812    -0.0000

  Mayer bond orders larger than 0.100000
B(  0-O ,  8-C ) :   1.1684 B(  0-O , 20-H ) :   0.7751 B(  1-O , 10-C ) :   1.5217 
B(  1-O , 20-H ) :   0.2043 B(  2-N ,  5-C ) :   1.0388 B(  2-N , 18-H ) :   0.9288 
B(  2-N , 19-H ) :   0.9285 B(  3-C ,  4-C ) :   0.9232 B(  3-C ,  5-C ) :   0.9832 
B(  3-C , 11-H ) :   0.9499 B(  3-C , 12-H ) :   0.9429 B(  4-C ,  6-C ) :   1.2690 
B(  4-C ,  7-C ) :   1.3812 B(  5-C , 13-H ) :   0.9558 B(  5-C , 14-H ) :   0.9553 
B(  6-C ,  8-C ) :   1.4012 B(  6-C , 15-H ) :   0.9955 B(  7-C ,  9-C ) :   1.3478 
B(  7-C , 16-H ) :   0.9784 B(  8-C , 10-C ) :   1.0530 B(  9-C , 10-C ) :   1.3178 
B(  9-C , 17-H ) :   0.9855 

-------
TIMINGS
-------

Total SCF time: 0 days 0 hours 0 min 11 sec 

Total time                  ....      11.072 sec
Sum of individual times     ....      10.208 sec  ( 92.2%)

Fock matrix formation       ....       8.829 sec  ( 79.7%)
  Split-RI-J                ....       1.944 sec  ( 22.0% of F)
  XC integration            ....       2.950 sec  ( 33.4% of F)
    Basis function eval.    ....       0.484 sec  ( 16.4% of XC)
    Density eval.           ....       0.663 sec  ( 22.5% of XC)
    XC-Functional eval.     ....       0.045 sec  (  1.5% of XC)
    XC-Potential eval.      ....       0.459 sec  ( 15.6% of XC)
Diagonalization             ....       0.055 sec  (  0.5%)
Density matrix formation    ....       0.031 sec  (  0.3%)
Population analysis         ....       0.048 sec  (  0.4%)
Initial guess               ....       0.085 sec  (  0.8%)
Orbital Transformation      ....       0.000 sec  (  0.0%)
Orbital Orthonormalization  ....       0.069 sec  (  0.6%)
DIIS solution               ....       0.022 sec  (  0.2%)
SOSCF solution              ....       0.375 sec  (  3.4%)
Grid generation             ....       0.763 sec  (  6.9%)

Maximum memory used throughout the entire SCF-calculation: 52.0 MB


-------------------------------------------------------------------------------
                          DFT DISPERSION CORRECTION                            
                                                                               
                              DFTD3 V3.1  Rev 1                                
                          USING Becke-Johnson damping                          
-------------------------------------------------------------------------------
The PBE functional is recognized
Active option DFTDOPT                   ...         4   

molecular C6(AA) [au] = 4461.835097 


            DFT-D V3
 parameters
 s6 scaling factor         :     1.0000 
 a1 scaling factor         :     0.4289 
 s8 scaling factor         :     0.7875 
 a2 scaling factor         :     4.4407 
 ad hoc parameters k1-k3   :    16.0000     1.3333    -4.0000 

 Edisp/kcal,au: -13.604035976573  -0.021679408977 
 E6   /kcal   :  -9.606445232 
 E8   /kcal   :  -3.997590745 
 % E8         :  29.385329117 

-------------------------   ----------------
Dispersion correction           -0.021679409
-------------------------   ----------------


-------------------------   --------------------
FINAL SINGLE POINT ENERGY      -515.813312176397
-------------------------   --------------------

                                *** OPTIMIZATION RUN DONE ***

                            ***************************************
                            *     ORCA property calculations      *
                            ***************************************

                                    ---------------------
                                    Active property flags
                                    ---------------------
   (+) Dipole Moment


------------------------------------------------------------------------------
                       ORCA ELECTRIC PROPERTIES CALCULATION
------------------------------------------------------------------------------

Dipole Moment Calculation                       ... on
Quadrupole Moment Calculation                   ... off
Polarizability Calculation                      ... off
GBWName                                         ... 5_M0006.gbw
Electron density                                ... 5_M0006.scfp
The origin for moment calculation is the CENTER OF MASS  = ( 0.193092, -0.032165 -0.028222)

-------------
DIPOLE MOMENT
-------------
                                X             Y             Z
Electronic contribution:     10.94156      -1.05534       0.04892
Nuclear contribution   :    -14.93746       1.01114       0.87152
                        -----------------------------------------
Total Dipole Moment    :     -3.99589      -0.04420       0.92045
                        -----------------------------------------
Magnitude (a.u.)       :      4.10077
Magnitude (Debye)      :     10.42334



--------------------
Rotational spectrum 
--------------------
 
Rotational constants in cm-1:     0.088941     0.018228     0.015863 
Rotational constants in MHz :  2666.387209   546.460558   475.563834 

 Dipole components along the rotational axes: 
x,y,z [a.u.] :    -4.000409     0.067129     0.899208 
x,y,z [Debye]:   -10.168231     0.170629     2.285606 

 
No protocol specified

Timings for individual modules:

Sum of individual times         ...      263.903 sec (=   4.398 min)
GTO integral calculation        ...       14.731 sec (=   0.246 min)   5.6 %
SCF iterations                  ...      184.501 sec (=   3.075 min)  69.9 %
SCF Gradient evaluation         ...       64.110 sec (=   1.068 min)  24.3 %
Geometry relaxation             ...        0.561 sec (=   0.009 min)   0.2 %



                             ****ORCA TERMINATED NORMALLY****
TOTAL RUN TIME: 0 days 0 hours 24 minutes 42 seconds 439 msec
