
                                 *****************
                                 * O   R   C   A *
                                 *****************

                                            #,                                       
                                            ###                                      
                                            ####                                     
                                            #####                                    
                                            ######                                   
                                           ########,                                 
                                     ,,################,,,,,                         
                               ,,#################################,,                 
                          ,,##########################################,,             
                       ,#########################################, ''#####,          
                    ,#############################################,,   '####,        
                  ,##################################################,,,,####,       
                ,###########''''           ''''###############################       
              ,#####''   ,,,,##########,,,,          '''####'''          '####       
            ,##' ,,,,###########################,,,                        '##       
           ' ,,###''''                  '''############,,,                           
         ,,##''                                '''############,,,,        ,,,,,,###''
      ,#''                                            '''#######################'''  
     '                                                          ''''####''''         
             ,#######,   #######,   ,#######,      ##                                
            ,#'     '#,  ##    ##  ,#'     '#,    #''#        ######   ,####,        
            ##       ##  ##   ,#'  ##            #'  '#       #        #'  '#        
            ##       ##  #######   ##           ,######,      #####,   #    #        
            '#,     ,#'  ##    ##  '#,     ,#' ,#      #,         ##   #,  ,#        
             '#######'   ##     ##  '#######'  #'      '#     #####' # '####'        



                  #######################################################
                  #                        -***-                        #
                  #          Department of theory and spectroscopy      #
                  #    Directorship and core code : Frank Neese         #
                  #        Max Planck Institute fuer Kohlenforschung    #
                  #                Kaiser Wilhelm Platz 1               #
                  #                 D-45470 Muelheim/Ruhr               #
                  #                      Germany                        #
                  #                                                     #
                  #                  All rights reserved                #
                  #                        -***-                        #
                  #######################################################


                         Program Version 5.0.2 -  RELEASE  -


 With contributions from (in alphabetic order):
   Daniel Aravena         : Magnetic Suceptibility
   Michael Atanasov       : Ab Initio Ligand Field Theory (pilot matlab implementation)
   Alexander A. Auer      : GIAO ZORA, VPT2 properties, NMR spectrum
   Ute Becker             : Parallelization
   Giovanni Bistoni       : ED, misc. LED, open-shell LED, HFLD
   Martin Brehm           : Molecular dynamics
   Dmytro Bykov           : SCF Hessian
   Vijay G. Chilkuri      : MRCI spin determinant printing, contributions to CSF-ICE
   Dipayan Datta          : RHF DLPNO-CCSD density
   Achintya Kumar Dutta   : EOM-CC, STEOM-CC
   Dmitry Ganyushin       : Spin-Orbit,Spin-Spin,Magnetic field MRCI
   Miquel Garcia          : C-PCM and meta-GGA Hessian, CC/C-PCM, Gaussian charge scheme
   Yang Guo               : DLPNO-NEVPT2, F12-NEVPT2, CIM, IAO-localization
   Andreas Hansen         : Spin unrestricted coupled pair/coupled cluster methods
   Benjamin Helmich-Paris : MC-RPA, TRAH-SCF, COSX integrals
   Lee Huntington         : MR-EOM, pCC
   Robert Izsak           : Overlap fitted RIJCOSX, COSX-SCS-MP3, EOM
   Marcus Kettner         : VPT2
   Christian Kollmar      : KDIIS, OOCD, Brueckner-CCSD(T), CCSD density, CASPT2, CASPT2-K
   Simone Kossmann        : Meta GGA functionals, TD-DFT gradient, OOMP2, MP2 Hessian
   Martin Krupicka        : Initial AUTO-CI
   Lucas Lang             : DCDCAS
   Marvin Lechner         : AUTO-CI (C++ implementation), FIC-MRCC
   Dagmar Lenk            : GEPOL surface, SMD
   Dimitrios Liakos       : Extrapolation schemes; Compound Job, initial MDCI parallelization
   Dimitrios Manganas     : Further ROCIS development; embedding schemes
   Dimitrios Pantazis     : SARC Basis sets
   Anastasios Papadopoulos: AUTO-CI, single reference methods and gradients
   Taras Petrenko         : DFT Hessian,TD-DFT gradient, ASA, ECA, R-Raman, ABS, FL, XAS/XES, NRVS
   Peter Pinski           : DLPNO-MP2, DLPNO-MP2 Gradient
   Christoph Reimann      : Effective Core Potentials
   Marius Retegan         : Local ZFS, SOC
   Christoph Riplinger    : Optimizer, TS searches, QM/MM, DLPNO-CCSD(T), (RO)-DLPNO pert. Triples
   Tobias Risthaus        : Range-separated hybrids, TD-DFT gradient, RPA, STAB
   Michael Roemelt        : Original ROCIS implementation
   Masaaki Saitow         : Open-shell DLPNO-CCSD energy and density
   Barbara Sandhoefer     : DKH picture change effects
   Avijit Sen             : IP-ROCIS
   Kantharuban Sivalingam : CASSCF convergence, NEVPT2, FIC-MRCI
   Bernardo de Souza      : ESD, SOC TD-DFT
   Georgi Stoychev        : AutoAux, RI-MP2 NMR, DLPNO-MP2 response
   Willem Van den Heuvel  : Paramagnetic NMR
   Boris Wezisla          : Elementary symmetry handling
   Frank Wennmohs         : Technical directorship


 We gratefully acknowledge several colleagues who have allowed us to
 interface, adapt or use parts of their codes:
   Stefan Grimme, W. Hujo, H. Kruse, P. Pracht,  : VdW corrections, initial TS optimization,
                  C. Bannwarth, S. Ehlert          DFT functionals, gCP, sTDA/sTD-DF
   Ed Valeev, F. Pavosevic, A. Kumar             : LibInt (2-el integral package), F12 methods
   Garnet Chan, S. Sharma, J. Yang, R. Olivares  : DMRG
   Ulf Ekstrom                                   : XCFun DFT Library
   Mihaly Kallay                                 : mrcc  (arbitrary order and MRCC methods)
   Jiri Pittner, Ondrej Demel                    : Mk-CCSD
   Frank Weinhold                                : gennbo (NPA and NBO analysis)
   Christopher J. Cramer and Donald G. Truhlar   : smd solvation model
   Lars Goerigk                                  : TD-DFT with DH, B97 family of functionals
   V. Asgeirsson, H. Jonsson                     : NEB implementation
   FAccTs GmbH                                   : IRC, NEB, NEB-TS, DLPNO-Multilevel, CI-OPT
                                                   MM, QMMM, 2- and 3-layer-ONIOM, Crystal-QMMM,
                                                   LR-CPCM, SF, NACMEs, symmetry and pop. for TD-DFT,
                                                   nearIR, NL-DFT gradient (VV10), updates on ESD,
                                                   ML-optimized integration grids
   S Lehtola, MJT Oliveira, MAL Marques          : LibXC Library
   Liviu Ungur et al                             : ANISO software


 Your calculation uses the libint2 library for the computation of 2-el integrals
 For citations please refer to: http://libint.valeyev.net

 Your ORCA version has been built with support for libXC version: 5.1.0
 For citations please refer to: https://tddft.org/programs/libxc/

 This ORCA versions uses:
   CBLAS   interface :  Fast vector & matrix operations
   LAPACKE interface :  Fast linear algebra routines
   SCALAPACK package :  Parallel linear algebra routines
   Shared memory     :  Shared parallel matrices
   BLAS/LAPACK       :  OpenBLAS 0.3.15  USE64BITINT DYNAMIC_ARCH NO_AFFINITY Haswell SINGLE_THREADED
        Core in use  :  Haswell
   Copyright (c) 2011-2014, The OpenBLAS Project


Your calculation utilizes the atom-pairwise dispersion correction
with the Becke-Johnson damping scheme (D3BJ)
Cite in your paper:
S.Grimme, S.Ehrlich, L.Goerigk, J Comput Chem, (2011), 32, 1456–1465 
S.Grimme, J.Antony, S.Ehrlich and H.Krieg, J.Chem.Phys., 132, (2010), 154104 
   

================================================================================

----- Orbital basis set information -----
Your calculation utilizes the basis: def2-TZVP
   F. Weigend and R. Ahlrichs, Phys. Chem. Chem. Phys. 7, 3297 (2005).

----- AuxJ basis set information -----
Your calculation utilizes the auxiliary basis: def2/J
   F. Weigend, Phys. Chem. Chem. Phys. 8, 1057 (2006).

================================================================================
                                        WARNINGS
                       Please study these warnings very carefully!
================================================================================

WARNING: Old DensityContainer found on disk!
         Will remove this file - 
         If you want to keep old densities, please start your calculation with a different basename. 


WARNING: your system is open-shell and RHF/RKS was chosen
  ===> : WILL SWITCH to UHF/UKS


WARNING: The environment variable RSH_COMMAND is not set!
  ===> : All Displacements for the Numerical Hessian or Gradient calculation
         will be started on localhost

INFO   : the flag for use of the SHARK integral package has been found!

Your calculation utilizes the atom-pairwise dispersion correction
with the Becke-Johnson damping scheme (D3BJ)
Cite in your paper:
S.Grimme, S.Ehrlich, L.Goerigk, J Comput Chem, (2011), 32, 1456–1465 
S.Grimme, J.Antony, S.Ehrlich and H.Krieg, J.Chem.Phys., 132, (2010), 154104 
   

================================================================================

----- Orbital basis set information -----
Your calculation utilizes the basis: def2-TZVP
   F. Weigend and R. Ahlrichs, Phys. Chem. Chem. Phys. 7, 3297 (2005).

----- AuxJ basis set information -----
Your calculation utilizes the auxiliary basis: def2/J
   F. Weigend, Phys. Chem. Chem. Phys. 8, 1057 (2006).

================================================================================
                                        WARNINGS
                       Please study these warnings very carefully!
================================================================================

WARNING: Old DensityContainer found on disk!
         Will remove this file - 
         If you want to keep old densities, please start your calculation with a different basename. 


WARNING: MOInp is set but Guess=PModel. MOInp will be ignored!
         To read the initial guess from a file you must also specify
         'MORead' in the simple input or 'Guess MORead' in the %scf block


WARNING: The environment variable RSH_COMMAND is not set!
  ===> : All Displacements for the Numerical Hessian or Gradient calculation
         will be started on localhost

INFO   : the flag for use of the SHARK integral package has been found!

Your calculation utilizes the atom-pairwise dispersion correction
with the Becke-Johnson damping scheme (D3BJ)
Cite in your paper:
S.Grimme, S.Ehrlich, L.Goerigk, J Comput Chem, (2011), 32, 1456–1465 
S.Grimme, J.Antony, S.Ehrlich and H.Krieg, J.Chem.Phys., 132, (2010), 154104 
   

================================================================================

----- Orbital basis set information -----
Your calculation utilizes the basis: def2-TZVP
   F. Weigend and R. Ahlrichs, Phys. Chem. Chem. Phys. 7, 3297 (2005).

----- AuxJ basis set information -----
Your calculation utilizes the auxiliary basis: def2/J
   F. Weigend, Phys. Chem. Chem. Phys. 8, 1057 (2006).

================================================================================
                                        WARNINGS
                       Please study these warnings very carefully!
================================================================================


WARNING: MOInp is set but Guess=PModel. MOInp will be ignored!
         To read the initial guess from a file you must also specify
         'MORead' in the simple input or 'Guess MORead' in the %scf block


WARNING: The environment variable RSH_COMMAND is not set!
  ===> : All Displacements for the Numerical Hessian or Gradient calculation
         will be started on localhost

INFO   : the flag for use of the SHARK integral package has been found!

Your calculation utilizes the atom-pairwise dispersion correction
with the Becke-Johnson damping scheme (D3BJ)
Cite in your paper:
S.Grimme, S.Ehrlich, L.Goerigk, J Comput Chem, (2011), 32, 1456–1465 
S.Grimme, J.Antony, S.Ehrlich and H.Krieg, J.Chem.Phys., 132, (2010), 154104 
   

================================================================================

----- Orbital basis set information -----
Your calculation utilizes the basis: def2-TZVP
   F. Weigend and R. Ahlrichs, Phys. Chem. Chem. Phys. 7, 3297 (2005).

----- AuxJ basis set information -----
Your calculation utilizes the auxiliary basis: def2/J
   F. Weigend, Phys. Chem. Chem. Phys. 8, 1057 (2006).

================================================================================
                                        WARNINGS
                       Please study these warnings very carefully!
================================================================================


WARNING: MOInp is set but Guess=PModel. MOInp will be ignored!
         To read the initial guess from a file you must also specify
         'MORead' in the simple input or 'Guess MORead' in the %scf block


WARNING: The environment variable RSH_COMMAND is not set!
  ===> : All Displacements for the Numerical Hessian or Gradient calculation
         will be started on localhost

INFO   : the flag for use of the SHARK integral package has been found!

Your calculation utilizes the atom-pairwise dispersion correction
with the Becke-Johnson damping scheme (D3BJ)
Cite in your paper:
S.Grimme, S.Ehrlich, L.Goerigk, J Comput Chem, (2011), 32, 1456–1465 
S.Grimme, J.Antony, S.Ehrlich and H.Krieg, J.Chem.Phys., 132, (2010), 154104 
   

================================================================================

----- Orbital basis set information -----
Your calculation utilizes the basis: def2-TZVP
   F. Weigend and R. Ahlrichs, Phys. Chem. Chem. Phys. 7, 3297 (2005).

----- AuxJ basis set information -----
Your calculation utilizes the auxiliary basis: def2/J
   F. Weigend, Phys. Chem. Chem. Phys. 8, 1057 (2006).

================================================================================
                                        WARNINGS
                       Please study these warnings very carefully!
================================================================================


WARNING: MOInp is set but Guess=PModel. MOInp will be ignored!
         To read the initial guess from a file you must also specify
         'MORead' in the simple input or 'Guess MORead' in the %scf block


WARNING: The environment variable RSH_COMMAND is not set!
  ===> : All Displacements for the Numerical Hessian or Gradient calculation
         will be started on localhost

INFO   : the flag for use of the SHARK integral package has been found!

================================================================================
                                       INPUT FILE
================================================================================
NAME = ex.inp
|  1> ! PBE D3 def2-TZVP opt numfreq PModel NOAUTOSTART
|  2> %pal nprocs=16 end
|  3> %geom maxiter=150 end
|  4> %base "neutral"
|  5> *xyz 2 2
|  6>   C   -0.31466164141898     -0.98424980728701     -0.36129663659727
|  7>   C   -1.14974975612247      1.68382144525008     -0.01222420690638
|  8>   C   -1.63671865636297     -0.70417164952078     -0.07290746342205
|  9>   C   0.61628814303502      0.06981098483040     -0.50464516999983
| 10>   C   0.17660885976350      1.39948488731954     -0.30504120389866
| 11>   C   -2.06024929958359      0.63238636731580      0.10120178510387
| 12>   O   -3.39595601474831      0.81090817164060      0.37997761883897
| 13>   O   -2.62702568567727     -1.66552342192712      0.04647039600001
| 14>   C   2.01158565205720     -0.21929110428013     -0.89951852509521
| 15>   C   3.03790797208950     -0.52800344633332      0.35282696045379
| 16>   N   3.51215111612517      0.60475813181689      1.01694160410712
| 17>   H   0.00055424773204     -2.01892547320731     -0.51939448051192
| 18>   H   -1.48160475098972      2.71613097469335      0.11916620173967
| 19>   H   0.88436752974159      2.22361479041467     -0.40635322417827
| 20>   H   -3.63567671763580      1.75705321702043      0.45446108931755
| 21>   H   -2.29097466357096     -2.56847506167298     -0.11647183043269
| 22>   H   2.46287984061172      0.60275417392375     -1.46769067984493
| 23>   H   2.07650080830558     -1.14174005668152     -1.49207202115920
| 24>   H   2.51527347767728     -1.19924678744440      1.04426256541389
| 25>   H   3.87147744027599     -1.04767946784036     -0.14148833074881
| 26>   H   3.08943796110450      0.94701474700466      1.87734599427498
| 27>   H   4.31194121603785      1.12791932338369      0.66258478233203
| 28>   Cu2  -4.54818759544687     -0.94119711341894      0.38340387021331
| 29> *
| 30> 
| 31> $new_job
| 32> 
| 33> ! PBE D3 def2-TZVP opt numfreq PModel NOAUTOSTART
| 34> %pal nprocs=16 end
| 35> %geom maxiter=150 end
| 36> %base "protonated"
| 37> *xyz 3 2
| 38>   C   1.73208716760524      1.52163363804737      0.09400973992142
| 39>   C   0.12269499200650     -0.82479950744431      0.01987288424070
| 40>   C   2.33639508362140      0.29697282445491      0.24975126598006
| 41>   C   0.33459659144966      1.57696447231623     -0.09487409588101
| 42>   C   -0.49138594327014      0.39986605277504     -0.13627008083436
| 43>   C   1.53150451446463     -0.90779117185879      0.24072305869684
| 44>   O   3.72104252869975      0.13908753045604      0.46378757070754
| 45>   O   2.01915772372487     -2.10379651260847      0.45939167759571
| 46>   C   -1.97656158864718      0.61078692557388     -0.33872145929303
| 47>   C   -2.84669940206333     -0.64734035589458     -0.32825017799819
| 48>   N   -4.31380373232302     -0.30676081195722     -0.51735376940365
| 49>   H   -4.49810224973394      0.16530432408188     -1.41893419544991
| 50>   H   -4.89128643548083     -1.16589430595938     -0.50680319545201
| 51>   H   -4.67770343639510      0.30577357754062      0.23243086334703
| 52>   H   2.30960001260237      2.44920004963617      0.11620229884757
| 53>   H   -0.41175403822471     -1.77650568290962      0.01388088575970
| 54>   H   -0.12665020753816      2.56047191410180     -0.21912243351271
| 55>   H   3.98701922369121      0.62914435528248      1.27591365242638
| 56>   H   2.97697241761329     -2.11669029537517      0.68787636478124
| 57>   H   -2.10124567219892      1.15581844011477     -1.29343235582567
| 58>   H   -2.31359066752325      1.31462753838409      0.44508573299230
| 59>   H   -2.58892060084130     -1.33784431134977     -1.14292926681201
| 60>   H   -2.78194576019267     -1.18640525161908      0.62699702115356
| 61>   Cu2  5.28716540795366      0.19260894121113     -0.89908495398752
| 62> *
| 63> 
| 64> $new_job
| 65> 
| 66> ! PBE D3 def2-TZVP opt numfreq PModel NOAUTOSTART
| 67> %pal nprocs=16 end
| 68> %geom maxiter=150 end
| 69> %base "deprotonated"
| 70> *xyz 1 2
| 71>   O   2.03452037954305     -2.08611286427439      0.08852964556773
| 72>   O   3.29934340638899      0.17476142775673     -0.47713139719137
| 73>   N   -3.06430817034243     -1.09336200908107     -1.02896183957806
| 74>   C   -2.14530044543004      0.28870572278042      0.92150506324752
| 75>   C   -0.70299456841306      0.26516947386174      0.58750352775633
| 76>   C   -3.07441103662295      0.16763938573223     -0.36940993701511
| 77>   C   0.00375645970789     -0.93836744228769      0.51442132518459
| 78>   C   -0.03222531125887      1.48349505847430      0.26554125837599
| 79>   C   1.34788662204534     -0.94218945001020      0.15115597662163
| 80>   C   1.30160011148151      1.50371553774554     -0.08634990865939
| 81>   C   2.03394125802549      0.29988020244273     -0.15595854143957
| 82>   H   -2.41764255533157      1.24095858102956      1.40023350329253
| 83>   H   -2.41800802984314     -0.53113201147160      1.59993150844581
| 84>   H   -2.78576530038842      0.95491375350725     -1.07875908327872
| 85>   H   -4.09539737528959      0.38431170589161     -0.02311277115255
| 86>   H   -0.46839660735158     -1.88785494955388      0.77067154944315
| 87>   H   -0.59102405953055      2.41986747954452      0.31281484878136
| 88>   H   1.81210730363680      2.44400944639236     -0.31438703296979
| 89>   H   -3.45727862800925     -1.88145469274972     -0.52071311831384
| 90>   H   -2.23124436966592     -1.33971534458085     -1.55643755235738
| 91>   H   2.95788687166625     -1.86161031892613     -0.16662287001886
| 92>   Cu2  4.45090665398206      1.55365772577655     -0.88307928274200
| 93> *
| 94> 
| 95> $new_job
| 96> 
| 97> ! PBE D3 def2-TZVP opt numfreq PModel NOAUTOSTART
| 98> %pal nprocs=16 end
| 99> %geom maxiter=150 end
|100> %base "2x_deprotonated"
|101> *xyz 0 2
|102>   O   -2.14008399864869     -1.92944889963538      0.06529478932115
|103>   O   -3.30701343334274      0.53635187638730     -0.53935601185534
|104>   N   2.86991882229045     -0.92014523266409     -1.20588766894877
|105>   C   2.13658896918447      0.25381127971663      0.94523789464956
|106>   C   0.67535117186624      0.29704533674795      0.61522021776727
|107>   C   3.02390632517907      0.23445661020969     -0.33220589095514
|108>   C   -0.07641485004684     -0.86267555518744      0.52815622920924
|109>   C   0.06255114335394      1.54980369628400      0.29955124429318
|110>   C   -1.44195885027539     -0.84226090998406      0.13808238732337
|111>   C   -1.25680612609792      1.63797206367541     -0.08237562748493
|112>   C   -2.06533851044555      0.47121348509998     -0.18473414955688
|113>   H   2.41489216332533      1.13511473242845      1.54714276359494
|114>   H   2.36630187622479     -0.64142141615643      1.54454623963280
|115>   H   4.07873790312124      0.29558758150798     -0.02110222348955
|116>   H   2.81652674730299      1.14103327463733     -0.92260017488255
|117>   H   0.35883971427116     -1.83334102874551      0.77510836459158
|118>   H   0.66600090292116      2.45795610202759      0.37152365374569
|119>   H   -1.72229546125553      2.59722638328268     -0.31353113380751
|120>   H   1.89715133967586     -1.00574973145384     -1.51101942981735
|121>   H   3.09114350410703     -1.78186323101375     -0.70186394772339
|122>   Cu2  -3.94639507971106     -1.34091808316449     -0.48088747460736
|123> *
|124> 
|125> $new_job
|126> 
|127> ! PBE D3 def2-TZVP opt numfreq PModel NOAUTOSTART
|128> %pal nprocs=16 end
|129> %geom maxiter=150 end
|130> %base "zwitterione"
|131> *xyz 2 2
|132>   O   3.41558266553673     -1.94269986922341     -0.20675002417826
|133>   C   2.51251416990587     -0.94008487410380     -0.15757999757812
|134>   C   1.14876642932751     -1.08959960230454     -0.38688156090168
|135>   C   0.30755265395026      0.02896291248095     -0.32739103384802
|136>   C   -1.17296637985854     -0.10822451157561     -0.60888408450217
|137>   C   -2.00817260854912      0.07269440827847      0.66250319989937
|138>   N   -3.49667512889164      0.01949229037076      0.35058855011760
|139>   H   -4.06324713057584      0.14016855084326      1.20553687515816
|140>   H   -3.77351540993764      0.76305117434314     -0.31026971391371
|141>   H   -3.76657314945116     -0.88277286962842     -0.07247513066695
|142>   C   0.84846076598474      1.31167157542045     -0.02586109575099
|143>   C   2.18924672534547      1.48207928251481      0.21591492375350
|144>   C   3.07820274694990      0.36355037681344      0.16026379317084
|145>   O   4.33560540849828      0.51754677580605      0.37737686425466
|146>   H   3.00666290684380     -2.80097110385143     -0.43729302929831
|147>   H   0.74321774290549     -2.07404914806002     -0.63345122689997
|148>   H   -1.45886280901436      0.65817538203095     -1.35044690737921
|149>   H   -1.37814897444125     -1.09233276570991     -1.05672900922181
|150>   H   -1.81679097352047     -0.71989126772857      1.39725705734172
|151>   H   -1.83114022266322      1.04371213678056      1.14240708776317
|152>   H   0.19111618752749      2.18339506834350     -0.00788484419097
|153>   H   2.61899582033899      2.45883484552118      0.43982233232017
|154>   Cu2  5.60270615478872     -0.86248006836182      0.29986337755096
|155> *
|156> 
|157>                          ****END OF INPUT****
================================================================================


                 $$$$$$$$$$$$$$$$$$$$$$$$$$$$$$$$$$$$$$$$$$$$$$ 
                 $ THERE ARE  5 JOBS TO BE PROCESSED THIS RUN $
                 $$$$$$$$$$$$$$$$$$$$$$$$$$$$$$$$$$$$$$$$$$$$$$ 




                 $$$$$$$$$$$$$$$$  JOB NUMBER  1 $$$$$$$$$$$$$$


                       *****************************
                       * Geometry Optimization Run *
                       *****************************

Geometry optimization settings:
Update method            Update   .... BFGS
Choice of coordinates    CoordSys .... Z-matrix Internals
Initial Hessian          InHess   .... Almoef's Model

Convergence Tolerances:
Energy Change            TolE     ....  5.0000e-06 Eh
Max. Gradient            TolMAXG  ....  3.0000e-04 Eh/bohr
RMS Gradient             TolRMSG  ....  1.0000e-04 Eh/bohr
Max. Displacement        TolMAXD  ....  4.0000e-03 bohr
RMS Displacement         TolRMSD  ....  2.0000e-03 bohr
Strict Convergence                ....  False
------------------------------------------------------------------------------
                        ORCA OPTIMIZATION COORDINATE SETUP
------------------------------------------------------------------------------

The optimization will be done in new redundant internal coordinates
Making redundant internal coordinates   ...  (new redundants) done
Evaluating the initial hessian          ...  (Almloef) done
Evaluating the coordinates              ...  done
Calculating the B-matrix                .... done
Calculating the G-matrix                .... done
Diagonalizing the G-matrix              .... done
Small eigenvalue found = 1.677e-02
Small eigenvalue found = 2.471e-02
The first mode is                       ....   58
The number of degrees of freedom        ....   63

    -----------------------------------------------------------------
                    Redundant Internal Coordinates


    -----------------------------------------------------------------
         Definition                    Initial Value    Approx d2E/dq
    -----------------------------------------------------------------
      1. B(C   2,C   0)                  1.3818         0.643839   
      2. B(C   3,C   0)                  1.4136         0.572913   
      3. B(C   4,C   3)                  1.4146         0.570736   
      4. B(C   4,C   1)                  1.3877         0.630010   
      5. B(C   5,C   2)                  1.4128         0.574539   
      6. B(C   5,C   1)                  1.3955         0.612323   
      7. B(O   6,C   5)                  1.3761         0.588877   
      8. B(O   7,C   2)                  1.3853         0.569267   
      9. B(C   8,C   3)                  1.4786         0.451157   
     10. B(C   9,C   8)                  1.6483         0.241869   
     11. B(N  10,C   9)                  1.3961         0.547190   
     12. B(H  11,C   0)                  1.0931         0.355997   
     13. B(H  12,C   1)                  1.0923         0.357109   
     14. B(H  13,C   4)                  1.0910         0.358722   
     15. B(H  14,O   6)                  0.9789         0.485117   
     16. B(H  15,O   7)                  0.9771         0.488226   
     17. B(H  16,C   8)                  1.0965         0.351643   
     18. B(H  17,C   8)                  1.0983         0.349296   
     19. B(H  18,C   9)                  1.0963         0.351906   
     20. B(H  19,C   9)                  1.0997         0.347547   
     21. B(H  20,N  10)                  1.0179         0.420330   
     22. B(H  21,N  10)                  1.0193         0.418206   
     23. B(Cu 22,O   7)                  2.0806         0.447856   
     24. B(Cu 22,O   6)                  2.0970         0.421681   
     25. A(C   2,C   0,H  11)          119.8628         0.354483   
     26. A(C   2,C   0,C   3)          120.0073         0.430859   
     27. A(C   3,C   0,H  11)          120.0806         0.347561   
     28. A(C   4,C   1,H  12)          120.6245         0.353368   
     29. A(C   5,C   1,H  12)          120.2705         0.351669   
     30. A(C   4,C   1,C   5)          119.1026         0.434344   
     31. A(C   5,C   2,O   7)          115.5674         0.418941   
     32. A(C   0,C   2,C   5)          120.2831         0.431078   
     33. A(C   0,C   2,O   7)          124.1429         0.427556   
     34. A(C   4,C   3,C   8)          120.9806         0.404148   
     35. A(C   0,C   3,C   4)          118.8082         0.421659   
     36. A(C   0,C   3,C   8)          120.1815         0.404420   
     37. A(C   1,C   4,C   3)          121.2933         0.428890   
     38. A(C   3,C   4,H  13)          119.6876         0.347785   
     39. A(C   1,C   4,H  13)          119.0015         0.353638   
     40. A(C   1,C   5,O   6)          123.5058         0.426308   
     41. A(C   1,C   5,C   2)          120.4756         0.427214   
     42. A(C   2,C   5,O   6)          116.0186         0.421480   
     43. A(H  14,O   6,Cu 22)          132.2909         0.382617   
     44. A(C   5,O   6,H  14)          112.2412         0.362531   
     45. A(C   5,O   6,Cu 22)          115.1674         0.444939   
     46. A(C   2,O   7,H  15)          112.3985         0.360835   
     47. A(H  15,O   7,Cu 22)          131.7786         0.387077   
     48. A(C   2,O   7,Cu 22)          115.6220         0.447069   
     49. A(H  16,C   8,H  17)          109.0132         0.288377   
     50. A(C   9,C   8,H  17)          102.4629         0.300802   
     51. A(C   3,C   8,C   9)          114.9148         0.348492   
     52. A(C   3,C   8,H  17)          111.3504         0.332899   
     53. A(C   9,C   8,H  16)          106.1312         0.301124   
     54. A(C   3,C   8,H  16)          112.3454         0.333269   
     55. A(N  10,C   9,H  19)          109.8632         0.341405   
     56. A(C   8,C   9,H  19)          102.6479         0.300562   
     57. A(N  10,C   9,H  18)          111.0217         0.342118   
     58. A(C   8,C   9,H  18)          107.2796         0.301159   
     59. A(C   8,C   9,N  10)          114.8951         0.357847   
     60. A(H  18,C   9,H  19)          110.8266         0.288185   
     61. A(H  20,N  10,H  21)          116.5602         0.300218   
     62. A(C   9,N  10,H  21)          121.1725         0.349136   
     63. A(C   9,N  10,H  20)          122.2651         0.349434   
     64. A(O   6,Cu 22,O   7)           77.4822         0.476321   
     65. D(O   7,C   2,C   0,C   3)    178.0084         0.028824   
     66. D(C   5,C   2,C   0,C   3)     -1.0200         0.028824   
     67. D(O   7,C   2,C   0,H  11)      0.5591         0.028824   
     68. D(C   5,C   2,C   0,H  11)   -178.4693         0.028824   
     69. D(C   8,C   3,C   0,H  11)      1.4282         0.022526   
     70. D(C   8,C   3,C   0,C   2)   -176.0155         0.022526   
     71. D(C   4,C   3,C   0,C   2)      2.0198         0.022526   
     72. D(C   4,C   3,C   0,H  11)    179.4635         0.022526   
     73. D(C   1,C   4,C   3,C   8)    176.1267         0.022347   
     74. D(C   1,C   4,C   3,C   0)     -1.8923         0.022347   
     75. D(H  13,C   4,C   1,H  12)     -0.2393         0.027520   
     76. D(C   3,C   4,C   1,H  12)   -178.7109         0.027520   
     77. D(H  13,C   4,C   1,C   5)    179.2007         0.027520   
     78. D(H  13,C   4,C   3,C   0)    179.6463         0.022347   
     79. D(C   3,C   4,C   1,C   5)      0.7291         0.027520   
     80. D(H  13,C   4,C   3,C   8)     -2.3346         0.022347   
     81. D(O   6,C   5,C   2,O   7)      0.6311         0.022659   
     82. D(C   1,C   5,C   2,C   0)     -0.1691         0.022659   
     83. D(O   6,C   5,C   2,C   0)    179.7397         0.022659   
     84. D(O   6,C   5,C   1,H  12)     -0.1417         0.025906   
     85. D(C   1,C   5,C   2,O   7)   -179.2777         0.022659   
     86. D(C   2,C   5,C   1,H  12)    179.7600         0.025906   
     87. D(C   2,C   5,C   1,C   4)      0.3180         0.025906   
     88. D(O   6,C   5,C   1,C   4)   -179.5838         0.025906   
     89. D(Cu 22,O   6,C   5,C   2)     -3.2337         0.027870   
     90. D(Cu 22,O   6,C   5,C   1)    176.6721         0.027870   
     91. D(H  14,O   6,C   5,C   2)   -177.7245         0.027870   
     92. D(H  14,O   6,C   5,C   1)      2.1812         0.027870   
     93. D(Cu 22,O   7,C   2,C   0)   -176.7651         0.025931   
     94. D(H  15,O   7,C   2,C   5)    177.7683         0.025931   
     95. D(H  15,O   7,C   2,C   0)     -1.3016         0.025931   
     96. D(Cu 22,O   7,C   2,C   5)      2.3049         0.025931   
     97. D(H  17,C   8,C   3,C   4)   -150.7283         0.015010   
     98. D(H  17,C   8,C   3,C   0)     27.2637         0.015010   
     99. D(H  16,C   8,C   3,C   4)    -28.1214         0.015010   
    100. D(H  16,C   8,C   3,C   0)    149.8706         0.015010   
    101. D(C   9,C   8,C   3,C   4)     93.3555         0.015010   
    102. D(C   9,C   8,C   3,C   0)    -88.6526         0.015010   
    103. D(H  19,C   9,C   8,H  16)    -74.4383         0.005285   
    104. D(H  19,C   9,C   8,C   3)    160.7607         0.005285   
    105. D(H  18,C   9,C   8,H  17)    -76.9895         0.005285   
    106. D(H  18,C   9,C   8,H  16)    168.7274         0.005285   
    107. D(H  18,C   9,C   8,C   3)     43.9264         0.005285   
    108. D(N  10,C   9,C   8,H  17)    159.0567         0.005285   
    109. D(N  10,C   9,C   8,H  16)     44.7736         0.005285   
    110. D(H  19,C   9,C   8,H  17)     39.8449         0.005285   
    111. D(N  10,C   9,C   8,C   3)    -80.0274         0.005285   
    112. D(H  21,N  10,C   9,H  19)     31.7366         0.025904   
    113. D(H  21,N  10,C   9,H  18)    154.6806         0.025904   
    114. D(H  21,N  10,C   9,C   8)    -83.3709         0.025904   
    115. D(H  20,N  10,C   9,H  19)   -147.7069         0.025904   
    116. D(H  20,N  10,C   9,H  18)    -24.7629         0.025904   
    117. D(H  20,N  10,C   9,C   8)     97.1856         0.025904   
    118. D(O   6,Cu 22,O   7,H  15)   -177.4028         0.002255   
    119. D(O   6,Cu 22,O   7,C   2)     -3.0305         0.002255   
    120. D(O   7,Cu 22,O   6,H  14)    176.4622         0.002170   
    121. D(O   7,Cu 22,O   6,C   5)      3.3616         0.002170   
    -----------------------------------------------------------------

Number of atoms                         .... 23
Number of degrees of freedom            .... 121

         *************************************************************
         *                GEOMETRY OPTIMIZATION CYCLE   1            *
         *************************************************************
---------------------------------
CARTESIAN COORDINATES (ANGSTROEM)
---------------------------------
  C     -0.314662   -0.984250   -0.361297
  C     -1.149750    1.683821   -0.012224
  C     -1.636719   -0.704172   -0.072907
  C      0.616288    0.069811   -0.504645
  C      0.176609    1.399485   -0.305041
  C     -2.060249    0.632386    0.101202
  O     -3.395956    0.810908    0.379978
  O     -2.627026   -1.665523    0.046470
  C      2.011586   -0.219291   -0.899519
  C      3.037908   -0.528003    0.352827
  N      3.512151    0.604758    1.016942
  H      0.000554   -2.018925   -0.519394
  H     -1.481605    2.716131    0.119166
  H      0.884368    2.223615   -0.406353
  H     -3.635677    1.757053    0.454461
  H     -2.290975   -2.568475   -0.116472
  H      2.462880    0.602754   -1.467691
  H      2.076501   -1.141740   -1.492072
  H      2.515273   -1.199247    1.044263
  H      3.871477   -1.047679   -0.141488
  H      3.089438    0.947015    1.877346
  H      4.311941    1.127919    0.662585
  Cu    -4.548188   -0.941197    0.383404

----------------------------
CARTESIAN COORDINATES (A.U.)
----------------------------
  NO LB      ZA    FRAG     MASS         X           Y           Z
   0 C     6.0000    0    12.011   -0.594624   -1.859963   -0.682752
   1 C     6.0000    0    12.011   -2.172712    3.181961   -0.023100
   2 C     6.0000    0    12.011   -3.092950   -1.330692   -0.137775
   3 C     6.0000    0    12.011    1.164616    0.131924   -0.953641
   4 C     6.0000    0    12.011    0.333742    2.644643   -0.576444
   5 C     6.0000    0    12.011   -3.893307    1.195037    0.191244
   6 O     8.0000    0    15.999   -6.417427    1.532394    0.718054
   7 O     8.0000    0    15.999   -4.964359   -3.147383    0.087816
   8 C     6.0000    0    12.011    3.801346   -0.414400   -1.699844
   9 C     6.0000    0    12.011    5.740814   -0.997782    0.666746
  10 N     7.0000    0    14.007    6.637004    1.142827    1.921741
  11 H     1.0000    0     1.008    0.001047   -3.815216   -0.981513
  12 H     1.0000    0     1.008   -2.799827    5.132744    0.225191
  13 H     1.0000    0     1.008    1.671212    4.202023   -0.767896
  14 H     1.0000    0     1.008   -6.870433    3.320349    0.858807
  15 H     1.0000    0     1.008   -4.329315   -4.853714   -0.220100
  16 H     1.0000    0     1.008    4.654168    1.139040   -2.773533
  17 H     1.0000    0     1.008    3.924018   -2.157576   -2.819607
  18 H     1.0000    0     1.008    4.753178   -2.266248    1.973370
  19 H     1.0000    0     1.008    7.316032   -1.979827   -0.267374
  20 H     1.0000    0     1.008    5.838192    1.789599    3.547670
  21 H     1.0000    0     1.008    8.148388    2.131459    1.252104
  22 Cu   29.0000    0    63.550   -8.594829   -1.778605    0.724528

--------------------------------
INTERNAL COORDINATES (ANGSTROEM)
--------------------------------
 C      0   0   0     0.000000000000     0.00000000     0.00000000
 C      1   0   0     2.817415114800     0.00000000     0.00000000
 C      1   2   0     1.381827355506    59.90852073     0.00000000
 C      1   2   3     1.413598407145    60.10794396   178.89782123
 C      2   1   3     1.387737817399    59.77038071   180.15255464
 C      2   1   3     1.395489375602    59.33262406   359.91520484
 O      6   2   1     1.376117156724   123.50575031   180.18150901
 O      3   1   2     1.385336174341   124.14292775   179.11186687
 C      4   1   2     1.478634546863   120.18145576   182.88327265
 C      9   4   1     1.648335533169   114.91482188   271.34744329
 N     10   9   4     1.396103009277   114.89513485   279.97259982
 H      1   2   3     1.093119260955   178.72568829    80.02568512
 H      2   1   3     1.092270177970   179.51511789   324.76540611
 H      5   2   1     1.091043792686   119.00153846   179.43440131
 H      7   6   2     0.978879078162   112.24121239     2.18122921
 H      8   3   1     0.977139766018   112.39845984   358.69836149
 H      9   4   1     1.096469097364   112.34535129   149.87057058
 H      9   4   1     1.098292171052   111.35042468    27.26369673
 H     10   9   4     1.096265311657   107.27959808    43.92639893
 H     10   9   4     1.099658507328   102.64794244   160.76074955
 H     11  10   9     1.017900641854   122.26511426    97.18559608
 H     11  10   9     1.019279448149   121.17251326   276.62908540
 Cu     8   3   1     2.080633521501   115.62195970   183.23494521

---------------------------
INTERNAL COORDINATES (A.U.)
---------------------------
 C      0   0   0     0.000000000000     0.00000000     0.00000000
 C      1   0   0     5.324142972543     0.00000000     0.00000000
 C      1   2   0     2.611275266267    59.90852073     0.00000000
 C      1   2   3     2.671313852851    60.10794396   178.89782123
 C      2   1   3     2.622444420569    59.77038071   180.15255464
 C      2   1   3     2.637092742684    59.33262406   359.91520484
 O      6   2   1     2.600484554399   123.50575031   180.18150901
 O      3   1   2     2.617905972919   124.14292775   179.11186687
 C      4   1   2     2.794214345725   120.18145576   182.88327265
 C      9   4   1     3.114902734500   114.91482188   271.34744329
 N     10   9   4     2.638252342277   114.89513485   279.97259982
 H      1   2   3     2.065696034920   178.72568829    80.02568512
 H      2   1   3     2.064091500612   179.51511789   324.76540611
 H      5   2   1     2.061773968291   119.00153846   179.43440131
 H      7   6   2     1.849813375952   112.24121239     2.18122921
 H      8   3   1     1.846526552337   112.39845984   358.69836149
 H      9   4   1     2.072026308325   112.34535129   149.87057058
 H      9   4   1     2.075471418319   111.35042468    27.26369673
 H     10   9   4     2.071641209149   107.27959808    43.92639893
 H     10   9   4     2.078053419687   102.64794244   160.76074955
 H     11  10   9     1.923553444647   122.26511426    97.18559608
 H     11  10   9     1.926159010936   121.17251326   276.62908540
 Cu     8   3   1     3.931827540692   115.62195970   183.23494521

---------------------
BASIS SET INFORMATION
---------------------
There are 5 groups of distinct atoms

 Group   1 Type C   : 11s6p2d1f contracted to 5s3p2d1f pattern {62111/411/11/1}
 Group   2 Type O   : 11s6p2d1f contracted to 5s3p2d1f pattern {62111/411/11/1}
 Group   3 Type N   : 11s6p2d1f contracted to 5s3p2d1f pattern {62111/411/11/1}
 Group   4 Type H   : 5s1p contracted to 3s1p pattern {311/1}
 Group   5 Type Cu  : 17s11p7d1f contracted to 6s4p4d1f pattern {842111/6311/4111/1}

Atom   0C    basis set group =>   1
Atom   1C    basis set group =>   1
Atom   2C    basis set group =>   1
Atom   3C    basis set group =>   1
Atom   4C    basis set group =>   1
Atom   5C    basis set group =>   1
Atom   6O    basis set group =>   2
Atom   7O    basis set group =>   2
Atom   8C    basis set group =>   1
Atom   9C    basis set group =>   1
Atom  10N    basis set group =>   3
Atom  11H    basis set group =>   4
Atom  12H    basis set group =>   4
Atom  13H    basis set group =>   4
Atom  14H    basis set group =>   4
Atom  15H    basis set group =>   4
Atom  16H    basis set group =>   4
Atom  17H    basis set group =>   4
Atom  18H    basis set group =>   4
Atom  19H    basis set group =>   4
Atom  20H    basis set group =>   4
Atom  21H    basis set group =>   4
Atom  22Cu   basis set group =>   5
---------------------------------
AUXILIARY/J BASIS SET INFORMATION
---------------------------------
There are 5 groups of distinct atoms

 Group   1 Type C   : 12s5p4d2f1g contracted to 6s4p3d1f1g pattern {711111/2111/211/2/1}
 Group   2 Type O   : 12s5p4d2f1g contracted to 6s4p3d1f1g pattern {711111/2111/211/2/1}
 Group   3 Type N   : 12s5p4d2f1g contracted to 6s4p3d1f1g pattern {711111/2111/211/2/1}
 Group   4 Type H   : 5s2p1d contracted to 3s1p1d pattern {311/2/1}
 Group   5 Type Cu  : 19s5p5d3f3g contracted to 8s5p4d3f3g pattern {121111111/11111/2111/111/111}

Atom   0C    basis set group =>   1
Atom   1C    basis set group =>   1
Atom   2C    basis set group =>   1
Atom   3C    basis set group =>   1
Atom   4C    basis set group =>   1
Atom   5C    basis set group =>   1
Atom   6O    basis set group =>   2
Atom   7O    basis set group =>   2
Atom   8C    basis set group =>   1
Atom   9C    basis set group =>   1
Atom  10N    basis set group =>   3
Atom  11H    basis set group =>   4
Atom  12H    basis set group =>   4
Atom  13H    basis set group =>   4
Atom  14H    basis set group =>   4
Atom  15H    basis set group =>   4
Atom  16H    basis set group =>   4
Atom  17H    basis set group =>   4
Atom  18H    basis set group =>   4
Atom  19H    basis set group =>   4
Atom  20H    basis set group =>   4
Atom  21H    basis set group =>   4
Atom  22Cu   basis set group =>   5
No protocol specified


           ************************************************************
           *        Program running with 16 parallel MPI-processes    *
           *              working on a common directory               *
           ************************************************************
------------------------------------------------------------------------------
                           ORCA GTO INTEGRAL CALCULATION
                           -- RI-GTO INTEGRALS CHOSEN --
------------------------------------------------------------------------------
------------------------------------------------------------------------------
                   ___                                                        
                  /   \      - P O W E R E D   B Y -                         
                 /     \                                                     
                 |  |  |   _    _      __       _____    __    __             
                 |  |  |  | |  | |    /  \     |  _  \  |  |  /  |          
                  \  \/   | |  | |   /    \    | | | |  |  | /  /          
                 / \  \   | |__| |  /  /\  \   | |_| |  |  |/  /          
                |  |  |   |  __  | /  /__\  \  |    /   |      \           
                |  |  |   | |  | | |   __   |  |    \   |  |\   \          
                \     /   | |  | | |  |  |  |  | |\  \  |  | \   \       
                 \___/    |_|  |_| |__|  |__|  |_| \__\ |__|  \__/        
                                                                              
                      - O R C A' S   B I G   F R I E N D -                    
                                      &                                       
                       - I N T E G R A L  F E E D E R -                       
                                                                              
 v1 FN, 2020, v2 2021                                                         
------------------------------------------------------------------------------


Reading SHARK input file neutral.SHARKINP.tmp ... ok
----------------------
SHARK INTEGRAL PACKAGE
----------------------

Number of atoms                             ...     23
Number of basis functions                   ...    452
Number of shells                            ...    180
Maximum angular momentum                    ...      3
Integral batch strategy                     ... SHARK/LIBINT Hybrid
RI-J (if used) integral strategy            ... SPLIT-RIJ (Revised 2003 algorithm where possible)
Printlevel                                  ...      1
Contraction scheme used                     ... SEGMENTED contraction
Coulomb Range Separation                    ... NOT USED
Exchange Range Separation                   ... NOT USED
Finite Nucleus Model                        ... NOT USED
Auxiliary Coulomb fitting basis             ... AVAILABLE
   # of basis functions in Aux-J            ...    751
   # of shells in Aux-J                     ...    243
   Maximum angular momentum in Aux-J        ...      4
Auxiliary J/K fitting basis                 ... NOT available
Auxiliary Correlation fitting basis         ... NOT available
Auxiliary 'external' fitting basis          ... NOT available
Integral threshold                          ...     2.500000e-11
Primitive cut-off                           ...     2.500000e-12
Primitive pair pre-selection threshold      ...     2.500000e-12

Calculating pre-screening integrals         ... done (  0.1 sec) Dimension = 180
Organizing shell pair data                  ... done (  0.4 sec)
Shell pair information
Total number of shell pairs                 ...     16290
Shell pairs after pre-screening             ...     13194
Total number of primitive shell pairs       ...     52337
Primitive shell pairs kept                  ...     29321
          la=0 lb=0:   3522 shell pairs
          la=1 lb=0:   3708 shell pairs
          la=1 lb=1:   1005 shell pairs
          la=2 lb=0:   1964 shell pairs
          la=2 lb=1:   1048 shell pairs
          la=2 lb=2:    294 shell pairs
          la=3 lb=0:    869 shell pairs
          la=3 lb=1:    473 shell pairs
          la=3 lb=2:    250 shell pairs
          la=3 lb=3:     61 shell pairs

Calculating one electron integrals          ... done (  0.1 sec)
Calculating RI/J V-Matrix + Cholesky decomp.... done (  0.1 sec)
Calculating Nuclear repulsion               ... done (  0.0 sec) ENN=    920.921972249563 Eh

SHARK setup successfully completed in   1.0 seconds

Maximum memory used throughout the entire GTOINT-calculation: 29.6 MB
No protocol specified


           ************************************************************
           *        Program running with 16 parallel MPI-processes    *
           *              working on a common directory               *
           ************************************************************
-------------------------------------------------------------------------------
                                 ORCA SCF
-------------------------------------------------------------------------------

------------
SCF SETTINGS
------------
Hamiltonian:
 Density Functional     Method          .... DFT(GTOs)
 Exchange Functional    Exchange        .... PBE
   PBE kappa parameter   XKappa         ....  0.804000
   PBE mue parameter    XMuePBE         ....  0.219520
 Correlation Functional Correlation     .... PBE
   PBE beta parameter  CBetaPBE         ....  0.066725
 LDA part of GGA corr.  LDAOpt          .... PW91-LDA
 Gradients option       PostSCFGGA      .... off
   Density functional embedding theory  .... OFF
   NL short-range parameter             ....  6.400000
 RI-approximation to the Coulomb term is turned on
   Number of AuxJ basis functions       .... 751


General Settings:
 Integral files         IntName         .... neutral
 Hartree-Fock type      HFTyp           .... UHF
 Total Charge           Charge          ....    2
 Multiplicity           Mult            ....    2
 Number of Electrons    NEL             ....  109
 Basis Dimension        Dim             ....  452
 Nuclear Repulsion      ENuc            ....    920.9219722496 Eh

Convergence Acceleration:
 DIIS                   CNVDIIS         .... on
   Start iteration      DIISMaxIt       ....    12
   Startup error        DIISStart       ....  0.200000
   # of expansion vecs  DIISMaxEq       ....     5
   Bias factor          DIISBfac        ....   1.050
   Max. coefficient     DIISMaxC        ....  10.000
 Trust-Rad. Augm. Hess. CNVTRAH         .... auto
   Auto Start mean grad. ratio tolernc. ....  1.125000
   Auto Start start iteration           ....    20
   Auto Start num. interpolation iter.  ....    10
   Max. Number of Micro iterations      ....    16
   Max. Number of Macro iterations      .... Maxiter - #DIIS iter
   Number of Davidson start vectors     ....     2
   Converg. threshold I  (grad. norm)   ....   1.000e-05
   Converg. threshold II (energy diff.) ....   1.000e-08
   Grad. Scal. Fac. for Micro threshold ....   0.100
   Minimum threshold for Micro iter.    ....   0.010
   NR start threshold (gradient norm)   ....   0.001
   Initial trust radius                 ....   0.400
   Minimum AH scaling param. (alpha)    ....   1.000
   Maximum AH scaling param. (alpha)    .... 1000.000
   Orbital update algorithm             .... Taylor
   White noise on init. David. guess    .... on
   Maximum white noise                  ....   0.010
   Quad. conv. algorithm                .... NR
 SOSCF                  CNVSOSCF        .... off
 Level Shifting         CNVShift        .... on
   Level shift para.    LevelShift      ....    0.2500
   Turn off err/grad.   ShiftErr        ....    0.0010
 Zerner damping         CNVZerner       .... off
 Static damping         CNVDamp         .... on
   Fraction old density DampFac         ....    0.7000
   Max. Damping (<1)    DampMax         ....    0.9800
   Min. Damping (>=0)   DampMin         ....    0.0000
   Turn off err/grad.   DampErr         ....    0.1000
 Fernandez-Rico         CNVRico         .... off

SCF Procedure:
 Maximum # iterations   MaxIter         ....   125
 SCF integral mode      SCFMode         .... Direct
   Integral package                     .... SHARK and LIBINT hybrid scheme
 Reset frequency        DirectResetFreq ....    20
 Integral Threshold     Thresh          ....  2.500e-11 Eh
 Primitive CutOff       TCut            ....  2.500e-12 Eh

Convergence Tolerance:
 Convergence Check Mode ConvCheckMode   .... Total+1el-Energy
 Convergence forced     ConvForced      .... 0
 Energy Change          TolE            ....  1.000e-08 Eh
 1-El. energy change                    ....  1.000e-05 Eh
 DIIS Error             TolErr          ....  5.000e-07


Diagonalization of the overlap matrix:
Smallest eigenvalue                        ... 8.584e-06
Time for diagonalization                   ...    0.066 sec
Threshold for overlap eigenvalues          ... 1.000e-08
Number of eigenvalues below threshold      ... 0
Time for construction of square roots      ...    0.039 sec
Total time needed                          ...    0.108 sec

Time for model grid setup =    0.200 sec

------------------------------
INITIAL GUESS: MODEL POTENTIAL
------------------------------
Loading Hartree-Fock densities                     ... done
Calculating cut-offs                               ... done
Initializing the effective Hamiltonian             ... done
Setting up the integral package (SHARK)            ... done
Starting the Coulomb interaction                   ... done (   0.2 sec)
Reading the grid                                   ... done
Mapping shells                                     ... done
Starting the XC term evaluation                    ... done (   0.3 sec)
  promolecular density results
     # of electrons  =    110.987607062
     EX              =   -132.528994806
     EC              =     -4.091900531
     EX+EC           =   -136.620895337
Transforming the Hamiltonian                       ... done (   0.1 sec)
Diagonalizing the Hamiltonian                      ... done (   0.2 sec)
Back transforming the eigenvectors                 ... done (   0.0 sec)
Now organizing SCF variables                       ... done
                      ------------------
                      INITIAL GUESS DONE (   1.1 sec)
                      ------------------
-------------------
DFT GRID GENERATION
-------------------

General Integration Accuracy     IntAcc      ... 4.388
Radial Grid Type                 RadialGrid  ... OptM3 with GC (2021)
Angular Grid (max. ang.)         AngularGrid ... 4 (Lebedev-302)
Angular grid pruning method      GridPruning ... 4 (adaptive)
Weight generation scheme         WeightScheme... Becke
Basis function cutoff            BFCut       ... 1.0000e-11
Integration weight cutoff        WCut        ... 1.0000e-14
Angular grids for H and He will be reduced by one unit
Partially contracted basis set               ... off
Rotationally invariant grid construction     ... off

Total number of grid points                  ...   112494
Total number of batches                      ...     1770
Average number of points per batch           ...       63
Average number of grid points per atom       ...     4891
Time for grid setup =    1.005 sec

--------------
SCF ITERATIONS
--------------
ITER       Energy         Delta-E        Max-DP      RMS-DP      [F,P]     Damp
               ***  Starting incremental Fock matrix formation  ***
  0  -2155.6123027908   0.000000000000 0.16076244  0.00072051  0.2407430 0.7000
  1  -2155.7649894987  -0.152686707933 0.08134911  0.00043072  0.0694346 0.7000
                               ***Turning on DIIS***
  2  -2155.8067407812  -0.041751282461 0.06355813  0.00063111  0.0354072 0.0000
  3  -2155.8739376789  -0.067196897680 0.11558595  0.00053200  0.0576621 0.0000
  4  -2155.8990242669  -0.025086587997 0.02120396  0.00016049  0.0270131 0.0000
  5  -2155.9039502617  -0.004925994873 0.00742113  0.00006763  0.0069871 0.0000
  6  -2155.9044069796  -0.000456717837 0.00345526  0.00003505  0.0094386 0.0000
  7  -2155.9045991188  -0.000192139245 0.00165536  0.00001761  0.0042608 0.0000
  8  -2155.9046617138  -0.000062594993 0.00110702  0.00001160  0.0011056 0.0000
  9  -2155.9046854527  -0.000023738890 0.00318284  0.00003734  0.0008945 0.0000
 10  -2155.9047218094  -0.000036356719 0.00012590  0.00000176  0.0006432 0.0000
 11  -2155.9047245386  -0.000002729208 0.00037150  0.00000475  0.0003128 0.0000
 12  -2155.9047230624   0.000001476218 0.00061974  0.00000619  0.0005664 0.0000
 13  -2155.9047246085  -0.000001546106 0.00031428  0.00000336  0.0005882 0.0000
 14  -2155.9047255531  -0.000000944628 0.00014428  0.00000201  0.0006606 0.0000
 15  -2155.9047259648  -0.000000411650 0.00006062  0.00000097  0.0002916 0.0000
 16  -2155.9047260886  -0.000000123764 0.00005865  0.00000063  0.0000493 0.0000
 17  -2155.9047260999  -0.000000011363 0.00001914  0.00000024  0.0000204 0.0000
 18  -2155.9047261023  -0.000000002345 0.00004544  0.00000047  0.0000047 0.0000
 19  -2155.9047261058  -0.000000003551 0.00004450  0.00000044  0.0000032 0.0000
               *** Restarting incremental Fock matrix formation ***
                                   *** Resetting DIIS ***
 20  -2155.9047261214  -0.000000015576 0.00012363  0.00000096  0.0000036 0.0000
 21  -2155.9047261206   0.000000000806 0.00001744  0.00000018  0.0000321 0.0000
 22  -2155.9047261243  -0.000000003758 0.00001155  0.00000009  0.0000057 0.0000
 23  -2155.9047261288  -0.000000004423 0.00001533  0.00000018  0.0000026 0.0000
 24  -2155.9047261309  -0.000000002109 0.00001643  0.00000017  0.0000014 0.0000
                            ***DIIS convergence achieved***

               *****************************************************
               *                     SUCCESS                       *
               *           SCF CONVERGED AFTER  25 CYCLES          *
               *****************************************************


----------------
TOTAL SCF ENERGY
----------------

Total Energy       :        -2155.90472614 Eh          -58665.15008 eV

Components:
Nuclear Repulsion  :          920.92197225 Eh           25059.56087 eV
Electronic Energy  :        -3076.82669839 Eh          -83724.71095 eV
One Electron Energy:        -4786.98229662 Eh         -130260.41060 eV
Two Electron Energy:         1710.15559823 Eh           46535.69966 eV

Virial components:
Potential Energy   :        -4307.05743782 Eh         -117200.99127 eV
Kinetic Energy     :         2151.15271169 Eh           58535.84119 eV
Virial Ratio       :            2.00220905


DFT components:
N(Alpha)           :       55.000007503001 electrons
N(Beta)            :       53.999999560007 electrons
N(Total)           :      109.000007063008 electrons
E(X)               :     -133.427433701744 Eh       
E(C)               :       -4.042422499850 Eh       
E(XC)              :     -137.469856201594 Eh       
DFET-embed. en.    :        0.000000000000 Eh       

---------------
SCF CONVERGENCE
---------------

  Last Energy change         ...   -5.0313e-09  Tolerance :   1.0000e-08
  Last MAX-Density change    ...    3.4652e-05  Tolerance :   1.0000e-07
  Last RMS-Density change    ...    3.0308e-07  Tolerance :   5.0000e-09
  Last DIIS Error            ...    3.3432e-07  Tolerance :   5.0000e-07

             **** THE GBW FILE WAS UPDATED (neutral.gbw) ****
             **** DENSITY neutral.scfp WAS UPDATED ****
             **** ENERGY FILE WAS UPDATED (neutral.en.tmp) ****
----------------------
UHF SPIN CONTAMINATION
----------------------

Warning: in a DFT calculation there is little theoretical justification to 
         calculate <S**2> as in Hartree-Fock theory. We will do it anyways
         but you should keep in mind that the values have only limited relevance

Expectation value of <S**2>     :     0.752638
Ideal value S*(S+1) for S=0.5   :     0.750000
Deviation                       :     0.002638

             **** THE GBW FILE WAS UPDATED (neutral.gbw) ****
             **** DENSITY neutral.scfp WAS UPDATED ****
----------------
ORBITAL ENERGIES
----------------
                 SPIN UP ORBITALS
  NO   OCC          E(Eh)            E(eV) 
   0   1.0000    -321.790773     -8756.3721 
   1   1.0000     -38.547920     -1048.9422 
   2   1.0000     -33.839774      -920.8271 
   3   1.0000     -33.839207      -920.8116 
   4   1.0000     -33.838955      -920.8048 
   5   1.0000     -19.120769      -520.3026 
   6   1.0000     -19.113270      -520.0985 
   7   1.0000     -14.310770      -389.4158 
   8   1.0000     -10.254974      -279.0520 
   9   1.0000     -10.248341      -278.8715 
  10   1.0000     -10.207827      -277.7691 
  11   1.0000     -10.188403      -277.2406 
  12   1.0000     -10.178662      -276.9755 
  13   1.0000     -10.176668      -276.9212 
  14   1.0000     -10.175569      -276.8913 
  15   1.0000     -10.172150      -276.7983 
  16   1.0000      -4.386973      -119.3756 
  17   1.0000      -2.925419       -79.6047 
  18   1.0000      -2.923085       -79.5412 
  19   1.0000      -2.920997       -79.4844 
  20   1.0000      -1.305961       -35.5370 
  21   1.0000      -1.283216       -34.9181 
  22   1.0000      -1.131672       -30.7944 
  23   1.0000      -1.072863       -29.1941 
  24   1.0000      -0.997852       -27.1529 
  25   1.0000      -0.969596       -26.3841 
  26   1.0000      -0.937575       -25.5127 
  27   1.0000      -0.886072       -24.1112 
  28   1.0000      -0.863099       -23.4861 
  29   1.0000      -0.834482       -22.7074 
  30   1.0000      -0.796189       -21.6654 
  31   1.0000      -0.785700       -21.3800 
  32   1.0000      -0.771112       -20.9830 
  33   1.0000      -0.759451       -20.6657 
  34   1.0000      -0.717730       -19.5304 
  35   1.0000      -0.698991       -19.0205 
  36   1.0000      -0.696365       -18.9491 
  37   1.0000      -0.687652       -18.7120 
  38   1.0000      -0.676113       -18.3980 
  39   1.0000      -0.672560       -18.3013 
  40   1.0000      -0.660253       -17.9664 
  41   1.0000      -0.644119       -17.5274 
  42   1.0000      -0.630807       -17.1651 
  43   1.0000      -0.611970       -16.6526 
  44   1.0000      -0.594142       -16.1674 
  45   1.0000      -0.589136       -16.0312 
  46   1.0000      -0.584947       -15.9172 
  47   1.0000      -0.523026       -14.2323 
  48   1.0000      -0.509288       -13.8584 
  49   1.0000      -0.499762       -13.5992 
  50   1.0000      -0.498687       -13.5700 
  51   1.0000      -0.496786       -13.5182 
  52   1.0000      -0.493842       -13.4381 
  53   1.0000      -0.481931       -13.1140 
  54   1.0000      -0.480420       -13.0729 
  55   0.0000      -0.391439       -10.6516 
  56   0.0000      -0.327916        -8.9231 
  57   0.0000      -0.319457        -8.6929 
  58   0.0000      -0.268067        -7.2945 
  59   0.0000      -0.260393        -7.0857 
  60   0.0000      -0.240588        -6.5467 
  61   0.0000      -0.228642        -6.2217 
  62   0.0000      -0.215486        -5.8637 
  63   0.0000      -0.206436        -5.6174 
  64   0.0000      -0.204964        -5.5774 
  65   0.0000      -0.193282        -5.2595 
  66   0.0000      -0.182964        -4.9787 
  67   0.0000      -0.178884        -4.8677 
  68   0.0000      -0.167520        -4.5585 
  69   0.0000      -0.161632        -4.3982 
  70   0.0000      -0.160160        -4.3582 
  71   0.0000      -0.148085        -4.0296 
  72   0.0000      -0.143389        -3.9018 
  73   0.0000      -0.130057        -3.5390 
  74   0.0000      -0.121371        -3.3027 
  75   0.0000      -0.112869        -3.0713 
  76   0.0000      -0.109171        -2.9707 
  77   0.0000      -0.098517        -2.6808 
  78   0.0000      -0.089517        -2.4359 
  79   0.0000      -0.085550        -2.3279 
  80   0.0000      -0.079111        -2.1527 
  81   0.0000      -0.073750        -2.0068 
  82   0.0000      -0.071451        -1.9443 
  83   0.0000      -0.063856        -1.7376 
  84   0.0000      -0.049108        -1.3363 
  85   0.0000      -0.042819        -1.1652 
  86   0.0000      -0.038545        -1.0489 
  87   0.0000      -0.027360        -0.7445 
  88   0.0000      -0.022845        -0.6216 
  89   0.0000      -0.016227        -0.4415 
  90   0.0000      -0.009447        -0.2571 
  91   0.0000      -0.003740        -0.1018 
  92   0.0000       0.010012         0.2724 
  93   0.0000       0.020149         0.5483 
  94   0.0000       0.022531         0.6131 
  95   0.0000       0.027903         0.7593 
  96   0.0000       0.031870         0.8672 
  97   0.0000       0.037042         1.0080 
  98   0.0000       0.044938         1.2228 
  99   0.0000       0.051548         1.4027 
 100   0.0000       0.059926         1.6307 
 101   0.0000       0.064655         1.7593 
 102   0.0000       0.073234         1.9928 
 103   0.0000       0.085631         2.3301 
 104   0.0000       0.094757         2.5785 
 105   0.0000       0.098061         2.6684 
 106   0.0000       0.110316         3.0019 
 107   0.0000       0.115957         3.1554 
 108   0.0000       0.126510         3.4425 
 109   0.0000       0.136622         3.7177 
 110   0.0000       0.142682         3.8826 
 111   0.0000       0.149293         4.0625 
 112   0.0000       0.152129         4.1396 
 113   0.0000       0.159599         4.3429 
 114   0.0000       0.168418         4.5829 
 115   0.0000       0.183628         4.9968 
 116   0.0000       0.187554         5.1036 
 117   0.0000       0.191255         5.2043 
 118   0.0000       0.200841         5.4652 
 119   0.0000       0.212171         5.7735 
 120   0.0000       0.215644         5.8680 
 121   0.0000       0.227979         6.2036 
 122   0.0000       0.238837         6.4991 
 123   0.0000       0.242446         6.5973 
 124   0.0000       0.248232         6.7547 
 125   0.0000       0.253987         6.9113 
 126   0.0000       0.255808         6.9609 
 127   0.0000       0.278104         7.5676 
 128   0.0000       0.292615         7.9625 
 129   0.0000       0.300847         8.1865 
 130   0.0000       0.311456         8.4751 
 131   0.0000       0.318790         8.6747 
 132   0.0000       0.320151         8.7117 
 133   0.0000       0.336993         9.1701 
 134   0.0000       0.350855         9.5473 
 135   0.0000       0.362708         9.8698 
 136   0.0000       0.386915        10.5285 
 137   0.0000       0.401728        10.9316 
 138   0.0000       0.406460        11.0603 
 139   0.0000       0.413409        11.2494 
 140   0.0000       0.425545        11.5797 
 141   0.0000       0.442503        12.0411 
 142   0.0000       0.443562        12.0699 
 143   0.0000       0.467458        12.7202 
 144   0.0000       0.474875        12.9220 
 145   0.0000       0.493277        13.4227 
 146   0.0000       0.497864        13.5476 
 147   0.0000       0.509501        13.8642 
 148   0.0000       0.538125        14.6431 
 149   0.0000       0.545117        14.8334 
 150   0.0000       0.551054        14.9949 
 151   0.0000       0.553640        15.0653 
 152   0.0000       0.558790        15.2054 
 153   0.0000       0.573523        15.6064 
 154   0.0000       0.579557        15.7705 
 155   0.0000       0.589761        16.0482 
 156   0.0000       0.600072        16.3288 
 157   0.0000       0.607384        16.5278 
 158   0.0000       0.621456        16.9107 
 159   0.0000       0.647087        17.6081 
 160   0.0000       0.651307        17.7230 
 161   0.0000       0.679069        18.4784 
 162   0.0000       0.682432        18.5699 
 163   0.0000       0.703335        19.1387 
 164   0.0000       0.728388        19.8204 
 165   0.0000       0.740086        20.1388 
 166   0.0000       0.757076        20.6011 
 167   0.0000       0.771507        20.9938 
 168   0.0000       0.774630        21.0788 
 169   0.0000       0.800105        21.7720 
 170   0.0000       0.817740        22.2518 
 171   0.0000       0.842917        22.9369 
 172   0.0000       0.854090        23.2410 
 173   0.0000       0.872107        23.7312 
 174   0.0000       0.873990        23.7825 
 175   0.0000       0.887949        24.1623 
 176   0.0000       0.910722        24.7820 
 177   0.0000       0.913157        24.8483 
 178   0.0000       0.927776        25.2461 
 179   0.0000       0.936983        25.4966 
 180   0.0000       0.951600        25.8944 
 181   0.0000       0.962708        26.1966 
 182   0.0000       0.975207        26.5367 
 183   0.0000       0.983414        26.7601 
 184   0.0000       1.016631        27.6639 
 185   0.0000       1.027566        27.9615 
 186   0.0000       1.043468        28.3942 
 187   0.0000       1.049374        28.5549 
 188   0.0000       1.064952        28.9788 
 189   0.0000       1.071339        29.1526 
 190   0.0000       1.079210        29.3668 
 191   0.0000       1.098821        29.9004 
 192   0.0000       1.113210        30.2920 
 193   0.0000       1.153994        31.4018 
 194   0.0000       1.158358        31.5205 
 195   0.0000       1.175517        31.9874 
 196   0.0000       1.177021        32.0284 
 197   0.0000       1.202880        32.7320 
 198   0.0000       1.215124        33.0652 
 199   0.0000       1.225919        33.3589 
 200   0.0000       1.242543        33.8113 
 201   0.0000       1.254454        34.1354 
 202   0.0000       1.265134        34.4261 
 203   0.0000       1.272894        34.6372 
 204   0.0000       1.304282        35.4913 
 205   0.0000       1.307420        35.5767 
 206   0.0000       1.310127        35.6504 
 207   0.0000       1.323194        36.0059 
 208   0.0000       1.338156        36.4131 
 209   0.0000       1.359992        37.0073 
 210   0.0000       1.364441        37.1283 
 211   0.0000       1.378451        37.5096 
 212   0.0000       1.390382        37.8342 
 213   0.0000       1.403792        38.1991 
 214   0.0000       1.417826        38.5810 
 215   0.0000       1.430110        38.9153 
 216   0.0000       1.437975        39.1293 
 217   0.0000       1.468118        39.9495 
 218   0.0000       1.491841        40.5950 
 219   0.0000       1.505604        40.9696 
 220   0.0000       1.511995        41.1435 
 221   0.0000       1.513850        41.1939 
 222   0.0000       1.523811        41.4650 
 223   0.0000       1.531197        41.6660 
 224   0.0000       1.552550        42.2470 
 225   0.0000       1.571830        42.7717 
 226   0.0000       1.596942        43.4550 
 227   0.0000       1.603478        43.6328 
 228   0.0000       1.613916        43.9169 
 229   0.0000       1.620031        44.0833 
 230   0.0000       1.641691        44.6727 
 231   0.0000       1.657831        45.1119 
 232   0.0000       1.664903        45.3043 
 233   0.0000       1.677031        45.6343 
 234   0.0000       1.686155        45.8826 
 235   0.0000       1.729297        47.0566 
 236   0.0000       1.738669        47.3116 
 237   0.0000       1.749847        47.6158 
 238   0.0000       1.762647        47.9641 
 239   0.0000       1.774108        48.2759 
 240   0.0000       1.784180        48.5500 
 241   0.0000       1.798974        48.9526 
 242   0.0000       1.817322        49.4519 
 243   0.0000       1.834705        49.9249 
 244   0.0000       1.840714        50.0884 
 245   0.0000       1.858573        50.5743 
 246   0.0000       1.876353        51.0582 
 247   0.0000       1.892842        51.5069 
 248   0.0000       1.921273        52.2805 
 249   0.0000       1.937020        52.7090 
 250   0.0000       1.963727        53.4357 
 251   0.0000       1.973772        53.7091 
 252   0.0000       2.000841        54.4457 
 253   0.0000       2.005781        54.5801 
 254   0.0000       2.012711        54.7687 
 255   0.0000       2.027417        55.1688 
 256   0.0000       2.051866        55.8341 
 257   0.0000       2.076027        56.4916 
 258   0.0000       2.098519        57.1036 
 259   0.0000       2.119750        57.6813 
 260   0.0000       2.131956        58.0135 
 261   0.0000       2.134361        58.0789 
 262   0.0000       2.147873        58.4466 
 263   0.0000       2.183065        59.4042 
 264   0.0000       2.194621        59.7187 
 265   0.0000       2.199756        59.8584 
 266   0.0000       2.227906        60.6244 
 267   0.0000       2.235213        60.8232 
 268   0.0000       2.256519        61.4030 
 269   0.0000       2.259442        61.4825 
 270   0.0000       2.281610        62.0858 
 271   0.0000       2.287332        62.2415 
 272   0.0000       2.297510        62.5184 
 273   0.0000       2.307561        62.7919 
 274   0.0000       2.316656        63.0394 
 275   0.0000       2.333042        63.4853 
 276   0.0000       2.362654        64.2911 
 277   0.0000       2.367094        64.4119 
 278   0.0000       2.375919        64.6520 
 279   0.0000       2.389442        65.0200 
 280   0.0000       2.399880        65.3041 
 281   0.0000       2.428103        66.0720 
 282   0.0000       2.434809        66.2545 
 283   0.0000       2.447587        66.6022 
 284   0.0000       2.457205        66.8640 
 285   0.0000       2.462183        66.9994 
 286   0.0000       2.477123        67.4060 
 287   0.0000       2.487722        67.6943 
 288   0.0000       2.503040        68.1112 
 289   0.0000       2.518765        68.5391 
 290   0.0000       2.528229        68.7966 
 291   0.0000       2.548654        69.3524 
 292   0.0000       2.564393        69.7807 
 293   0.0000       2.578439        70.1629 
 294   0.0000       2.593884        70.5832 
 295   0.0000       2.615149        71.1618 
 296   0.0000       2.624161        71.4071 
 297   0.0000       2.624516        71.4167 
 298   0.0000       2.653951        72.2177 
 299   0.0000       2.670508        72.6682 
 300   0.0000       2.686968        73.1161 
 301   0.0000       2.703821        73.5747 
 302   0.0000       2.724469        74.1366 
 303   0.0000       2.738913        74.5296 
 304   0.0000       2.763371        75.1951 
 305   0.0000       2.779473        75.6333 
 306   0.0000       2.789512        75.9065 
 307   0.0000       2.806338        76.3643 
 308   0.0000       2.820157        76.7404 
 309   0.0000       2.821616        76.7801 
 310   0.0000       2.826353        76.9090 
 311   0.0000       2.843643        77.3794 
 312   0.0000       2.853514        77.6481 
 313   0.0000       2.859565        77.8127 
 314   0.0000       2.870688        78.1154 
 315   0.0000       2.886694        78.5509 
 316   0.0000       2.904226        79.0280 
 317   0.0000       2.909574        79.1735 
 318   0.0000       2.928446        79.6871 
 319   0.0000       2.929933        79.7275 
 320   0.0000       2.953069        80.3571 
 321   0.0000       2.957624        80.4810 
 322   0.0000       2.977424        81.0198 
 323   0.0000       2.994953        81.4968 
 324   0.0000       3.007968        81.8510 
 325   0.0000       3.012510        81.9746 
 326   0.0000       3.023933        82.2854 
 327   0.0000       3.026048        82.3429 
 328   0.0000       3.048354        82.9499 
 329   0.0000       3.067362        83.4672 
 330   0.0000       3.074841        83.6707 
 331   0.0000       3.092054        84.1391 
 332   0.0000       3.106109        84.5215 
 333   0.0000       3.113254        84.7160 
 334   0.0000       3.123837        85.0039 
 335   0.0000       3.141570        85.4865 
 336   0.0000       3.158180        85.9385 
 337   0.0000       3.174097        86.3716 
 338   0.0000       3.183788        86.6353 
 339   0.0000       3.208589        87.3102 
 340   0.0000       3.257433        88.6393 
 341   0.0000       3.259275        88.6894 
 342   0.0000       3.269253        88.9609 
 343   0.0000       3.286281        89.4242 
 344   0.0000       3.296505        89.7025 
 345   0.0000       3.310079        90.0718 
 346   0.0000       3.314705        90.1977 
 347   0.0000       3.357997        91.3757 
 348   0.0000       3.361385        91.4679 
 349   0.0000       3.373829        91.8066 
 350   0.0000       3.399103        92.4943 
 351   0.0000       3.420655        93.0808 
 352   0.0000       3.445038        93.7443 
 353   0.0000       3.461038        94.1796 
 354   0.0000       3.477038        94.6150 
 355   0.0000       3.493555        95.0645 
 356   0.0000       3.520548        95.7990 
 357   0.0000       3.548056        96.5475 
 358   0.0000       3.561801        96.9215 
 359   0.0000       3.570965        97.1709 
 360   0.0000       3.581748        97.4643 
 361   0.0000       3.603510        98.0565 
 362   0.0000       3.623760        98.6075 
 363   0.0000       3.664927        99.7277 
 364   0.0000       3.706381       100.8557 
 365   0.0000       3.729051       101.4726 
 366   0.0000       3.740073       101.7726 
 367   0.0000       3.766470       102.4909 
 368   0.0000       3.777821       102.7997 
 369   0.0000       3.795032       103.2681 
 370   0.0000       3.807309       103.6022 
 371   0.0000       3.848974       104.7359 
 372   0.0000       3.851404       104.8020 
 373   0.0000       3.884813       105.7111 
 374   0.0000       3.893868       105.9575 
 375   0.0000       3.928038       106.8874 
 376   0.0000       3.960147       107.7611 
 377   0.0000       3.988093       108.5215 
 378   0.0000       4.015212       109.2595 
 379   0.0000       4.037083       109.8546 
 380   0.0000       4.085049       111.1598 
 381   0.0000       4.099857       111.5628 
 382   0.0000       4.117518       112.0434 
 383   0.0000       4.149713       112.9194 
 384   0.0000       4.183169       113.8298 
 385   0.0000       4.250034       115.6493 
 386   0.0000       4.266665       116.1019 
 387   0.0000       4.294886       116.8698 
 388   0.0000       4.335135       117.9650 
 389   0.0000       4.351999       118.4239 
 390   0.0000       4.385392       119.3326 
 391   0.0000       4.426804       120.4595 
 392   0.0000       4.467267       121.5605 
 393   0.0000       4.492635       122.2508 
 394   0.0000       4.514451       122.8445 
 395   0.0000       4.552357       123.8759 
 396   0.0000       4.639942       126.2592 
 397   0.0000       4.678742       127.3151 
 398   0.0000       4.697967       127.8382 
 399   0.0000       4.707044       128.0852 
 400   0.0000       4.719779       128.4317 
 401   0.0000       4.731480       128.7501 
 402   0.0000       4.764542       129.6498 
 403   0.0000       4.784030       130.1801 
 404   0.0000       4.834169       131.5444 
 405   0.0000       4.856145       132.1424 
 406   0.0000       4.891840       133.1137 
 407   0.0000       4.913632       133.7067 
 408   0.0000       4.974855       135.3727 
 409   0.0000       4.982424       135.5787 
 410   0.0000       5.015071       136.4670 
 411   0.0000       5.047163       137.3403 
 412   0.0000       5.085831       138.3925 
 413   0.0000       5.173371       140.7746 
 414   0.0000       5.200960       141.5253 
 415   0.0000       5.213748       141.8733 
 416   0.0000       5.351527       145.6225 
 417   0.0000       5.353913       145.6874 
 418   0.0000       5.354915       145.7146 
 419   0.0000       5.357031       145.7722 
 420   0.0000       5.359002       145.8258 
 421   0.0000       5.372736       146.1996 
[...]
     34       0.000029  -0.000132   0.000664  -0.013912   0.077184  -0.000035
     35      -0.000007   0.000019   0.000197  -0.002770   0.017921  -0.000007
     36      -0.000021  -0.000033  -0.000346   0.000408   0.001876  -0.000053
     37       0.000005   0.000001  -0.000662  -0.000061  -0.001938  -0.000020
     38       0.000011  -0.000012  -0.000152   0.000031  -0.000054  -0.000012
     39       0.000001   0.000019   0.000140  -0.000208  -0.000232   0.000056
     40      -0.000008   0.000006   0.000048  -0.000005   0.000183   0.000011
     41      -0.000004   0.000010   0.000031  -0.000032   0.000002   0.000011
     42      -0.000134   0.000052   0.002616  -0.000117   0.000255  -0.000702
     43      -0.000224   0.000016  -0.008031   0.000124   0.001006  -0.001055
     44      -0.000099  -0.000006  -0.001176  -0.000001   0.000210  -0.000298
     45       0.002678  -0.003703  -0.375620   0.011911   0.005887  -0.000049
     46       0.004378  -0.007634  -0.893898   0.029143   0.014391   0.000060
     47       0.001361  -0.002049  -0.224924   0.007381   0.003599  -0.000021
     48       0.012417  -0.022934  -0.000088   0.003708   0.000266  -0.001293
     49      -0.025302   0.069147  -0.001857  -0.003897   0.000540   0.001497
     50       0.025104  -0.070526   0.001086   0.005305  -0.000121  -0.000479
     51      -0.050118   0.023061  -0.005070   0.001024   0.000615  -0.001084
     52      -0.253539   0.131780  -0.012485  -0.001972   0.000402  -0.002116
     53      -0.116127   0.061997  -0.006148  -0.000223   0.000355  -0.000423
     54      -0.124709  -0.117939   0.000413   0.000845   0.000059   0.006335
     55       0.527101   0.494330  -0.002388  -0.005207  -0.000214  -0.008347
     56      -0.464646  -0.458711   0.002496   0.004633   0.000118   0.007628
     57      -0.101286   0.112031  -0.000685  -0.000392   0.000111   0.005949
     58      -0.569290   0.618271  -0.005394  -0.009316  -0.000380   0.009504
     59      -0.263092   0.306339  -0.002850  -0.005093  -0.000203   0.004665
     60      -0.001444   0.008411   0.021839   0.590166   0.113326   0.000485
     61       0.002095  -0.010722  -0.027549  -0.779340  -0.144931  -0.001019
     62      -0.000344   0.000091  -0.000512  -0.017275  -0.002676   0.000076
     63      -0.000128   0.000803  -0.003668   0.070808  -0.379650   0.000219
     64      -0.000474   0.001942  -0.008704   0.169745  -0.879680   0.000305
     65      -0.000168   0.000580  -0.001967   0.038478  -0.200111   0.000090
     66      -0.000000  -0.000000   0.000007   0.000005  -0.000015  -0.000004
     67       0.000000   0.000000   0.000008  -0.000005   0.000003   0.000000
     68      -0.000001  -0.000002   0.000002   0.000001  -0.000002  -0.000001
                 66         67         68    
      0      -0.000020   0.000010   0.024485
      1      -0.000025   0.000030   0.055518
      2      -0.000011   0.000007   0.014608
      3       0.000007   0.000014   0.000788
      4      -0.000012  -0.000013   0.001533
      5       0.000002   0.000000   0.000413
      6       0.000003   0.000005   0.000700
      7       0.000018   0.000019  -0.001493
      8      -0.000008  -0.000004  -0.000183
      9      -0.000006  -0.000042  -0.000144
     10      -0.000010  -0.000024   0.000758
     11      -0.000009  -0.000020   0.000100
     12      -0.000091  -0.000136   0.000019
     13      -0.000527   0.000611  -0.000076
     14       0.000426   0.000340  -0.000037
     15      -0.000327  -0.000367  -0.000049
     16       0.002012  -0.001889   0.000008
     17      -0.000987  -0.000558   0.000026
     18       0.010910   0.012727   0.000080
     19       0.054010  -0.059771   0.000051
     20      -0.058819  -0.052559  -0.000015
     21      -0.284282  -0.333323  -0.000331
     22       0.076391   0.061453   0.000058
     23       0.440629   0.520360   0.000670
     24       0.203259  -0.032189  -0.000167
     25      -0.577678   0.088398   0.000217
     26       0.504621  -0.101545  -0.000123
     27      -0.068334   0.191360  -0.000326
     28      -0.245100   0.676043  -0.001161
     29      -0.132488   0.307279  -0.000442
     30       0.000017   0.000007  -0.000165
     31      -0.000045   0.000009  -0.000188
     32      -0.000011  -0.000007  -0.000064
     33       0.000003  -0.000005   0.000055
     34       0.000027  -0.000015   0.000263
     35       0.000008  -0.000002   0.000046
     36       0.000009  -0.000001   0.000023
     37      -0.000002   0.000006  -0.001013
     38       0.000005   0.000001  -0.000176
     39      -0.000009  -0.000004  -0.000141
     40       0.000002  -0.000006  -0.000048
     41      -0.000002  -0.000002  -0.000028
     42       0.000241  -0.000155  -0.403225
     43       0.000490  -0.000435  -0.882353
     44       0.000173  -0.000095  -0.234365
     45      -0.000075   0.000115   0.000720
     46      -0.000066  -0.000028   0.005355
     47       0.000008   0.000006   0.001234
     48      -0.002011   0.000223   0.000287
     49       0.002958  -0.001160   0.000115
     50      -0.001624   0.000608   0.000031
     51       0.000449  -0.001631   0.000181
     52       0.002069  -0.004010   0.000171
     53       0.000208  -0.000866   0.000075
     54       0.006999  -0.001593   0.000029
     55      -0.017445   0.004975  -0.000137
     56       0.015838  -0.002753   0.000079
     57      -0.002758   0.006431  -0.000049
     58      -0.009270   0.020209   0.000142
     59      -0.003083   0.010101   0.000182
     60      -0.000071  -0.000013   0.000177
     61       0.000252  -0.000020   0.000034
     62       0.000094   0.000021   0.000049
     63      -0.000002   0.000032  -0.000560
     64      -0.000102   0.000133  -0.000560
     65       0.000006   0.000077  -0.000163
     66       0.000000   0.000001   0.000019
     67      -0.000000   0.000001  -0.000009
     68       0.000000   0.000001   0.000001


-----------
IR SPECTRUM
-----------

 Mode   freq       eps      Int      T**2         TX        TY        TZ
       cm**-1   L/(mol*cm) km/mol    a.u.
----------------------------------------------------------------------------
  6:     29.73   0.001654    8.36  0.017360  (-0.014522  0.088893 -0.096161)
  7:     49.62   0.001246    6.29  0.007834  ( 0.022044  0.023145  0.082534)
  8:     70.22   0.001582    7.99  0.007029  ( 0.040411  0.071173  0.018190)
  9:     86.73   0.000579    2.93  0.002085  (-0.016608  0.042265 -0.004740)
 10:     97.05   0.000522    2.64  0.001677  (-0.034856 -0.014790  0.015601)
 11:    157.78   0.001218    6.15  0.002408  (-0.010524  0.005418 -0.047623)
 12:    218.13   0.000062    0.32  0.000089  (-0.008244 -0.001410  0.004389)
 13:    222.99   0.000172    0.87  0.000241  (-0.012869 -0.007018  0.005066)
 14:    240.41   0.000309    1.56  0.000401  (-0.005015  0.003671 -0.019043)
 15:    286.00   0.002052   10.37  0.002239  (-0.045019 -0.008250  0.011992)
 16:    315.64   0.002283   11.54  0.002257  ( 0.043911 -0.010379 -0.014881)
 17:    333.70   0.000766    3.87  0.000716  ( 0.021160 -0.002984  0.016100)
 18:    413.75   0.000810    4.09  0.000611  ( 0.022177  0.009853  0.004661)
 19:    421.44   0.015673   79.21  0.011605  (-0.017105 -0.021153  0.104237)
 20:    457.04   0.004728   23.90  0.003228  (-0.007445 -0.012313  0.054968)
 21:    483.89   0.000070    0.35  0.000045  (-0.002929  0.004598  0.003931)
 22:    534.46   0.000615    3.11  0.000359  (-0.007691  0.016928  0.003653)
 23:    605.88   0.002994   15.13  0.001542  ( 0.004442 -0.033518 -0.019971)
 24:    612.98   0.001351    6.83  0.000688  (-0.013313 -0.013184  0.018354)
 25:    718.03   0.000681    3.44  0.000296  (-0.003551  0.013135 -0.010534)
 26:    738.16   0.000700    3.54  0.000296  (-0.003246  0.012431 -0.011439)
 27:    749.77   0.000814    4.12  0.000339  ( 0.001977 -0.018300  0.000442)
 28:    799.75   0.001273    6.43  0.000497  ( 0.012751  0.008506 -0.016181)
 29:    816.60   0.006212   31.39  0.002374  (-0.010953 -0.004601  0.047254)
 30:    836.37   0.004788   24.20  0.001787  (-0.015266 -0.006898  0.038806)
 31:    875.79   0.002510   12.69  0.000895  (-0.026636  0.013132  0.003555)
 32:    890.55   0.002129   10.76  0.000746  ( 0.012313  0.024310  0.001841)
 33:    930.56   0.000884    4.47  0.000296  ( 0.014382  0.004265  0.008442)
 34:    954.60   0.000169    0.85  0.000055  ( 0.002777  0.000452  0.006884)
 35:    956.24   0.001026    5.19  0.000335  ( 0.016544  0.002749  0.007328)
 36:   1061.33   0.001113    5.62  0.000327  ( 0.016938 -0.001042  0.006264)
 37:   1097.49   0.006304   31.86  0.001792  ( 0.032200 -0.000282 -0.027488)
 38:   1109.11   0.018286   92.41  0.005145  (-0.044096  0.056365  0.004858)
 39:   1144.43   0.001414    7.14  0.000386  ( 0.017098 -0.009652 -0.000133)
 40:   1157.10   0.000193    0.98  0.000052  (-0.000683 -0.007031 -0.001475)
 41:   1240.37   0.004348   21.97  0.001094  ( 0.014231 -0.029748 -0.002548)
 42:   1245.22   0.004608   23.28  0.001155  (-0.032874  0.008408 -0.001816)
 43:   1287.75   0.001397    7.06  0.000339  ( 0.001436 -0.018185 -0.002406)
 44:   1294.81   0.000779    3.94  0.000188  ( 0.004056 -0.012139 -0.004905)
 45:   1311.60   0.000604    3.05  0.000144  (-0.004417 -0.010816  0.002670)
 46:   1356.24   0.003679   18.59  0.000847  (-0.007189  0.028146  0.001622)
 47:   1364.01   0.005624   28.42  0.001287  (-0.033715  0.011585  0.003973)
 48:   1375.46   0.000637    3.22  0.000145  ( 0.011486 -0.002269  0.002728)
 49:   1431.44   0.000262    1.32  0.000057  ( 0.005883 -0.000953  0.004641)
 50:   1448.85   0.015901   80.36  0.003425  ( 0.006799 -0.057908 -0.005040)
 51:   1452.65   0.004881   24.67  0.001049  ( 0.014011 -0.015759 -0.024576)
 52:   1471.66   0.014468   73.11  0.003068  (-0.054426 -0.004051 -0.009449)
 53:   1476.23   0.024724  124.94  0.005226  ( 0.070749  0.001107  0.014824)
 54:   1488.74   0.004492   22.70  0.000942  ( 0.030290 -0.003965  0.002899)
 55:   1583.38   0.019691   99.51  0.003881  ( 0.057959 -0.022797  0.001369)
 56:   1612.53   0.010341   52.26  0.002001  (-0.003417  0.044464  0.003522)
 57:   1614.38   0.007913   39.99  0.001530  (-0.010279 -0.007008  0.037077)
 58:   2959.23   0.000368    1.86  0.000039  (-0.005636 -0.001053 -0.002435)
 59:   3017.62   0.000709    3.58  0.000073  (-0.006973 -0.004592 -0.001891)
 60:   3023.61   0.000146    0.74  0.000015  ( 0.001323  0.002417  0.002738)
 61:   3079.98   0.000036    0.18  0.000004  (-0.001836  0.000290 -0.000435)
 62:   3099.96   0.000010    0.05  0.000001  (-0.000734  0.000694 -0.000005)
 63:   3111.00   0.000182    0.92  0.000018  (-0.003873  0.001655  0.000729)
 64:   3143.06   0.001809    9.14  0.000180  (-0.004678 -0.012318 -0.002442)
 65:   3300.30   0.017920   90.56  0.001694  ( 0.041138 -0.000888  0.001138)
 66:   3372.95   0.019627   99.19  0.001816  (-0.009239 -0.026806  0.031811)
 67:   3374.27   0.019898  100.56  0.001840  (-0.009507  0.030383  0.028753)
 68:   3630.13   0.034284  173.26  0.002947  ( 0.000007 -0.053186 -0.010886)

* The epsilon (eps) is given for a Dirac delta lineshape.
** The dipole moment derivative (T) already includes vibrational overlap.

The first frequency considered to be a vibration is 6
The total number of vibrations considered is 63


--------------------------
THERMOCHEMISTRY AT 298.15K
--------------------------

Temperature         ... 298.15 K
Pressure            ... 1.00 atm
Total Mass          ... 216.73 AMU

Throughout the following assumptions are being made:
  (1) The electronic state is orbitally nondegenerate
      but the spin degeneracy is treated
  (2) There are no thermally accessible electronically excited states
  (3) Hindered rotations indicated by low frequency modes are not
      treated as such but are treated as vibrations and this may
      cause some error
  (4) All equations used are the standard statistical mechanics
      equations for an ideal gas
  (5) All vibrations are strictly harmonic

freq.      29.73  E(vib)   ...       0.55 
freq.      49.62  E(vib)   ...       0.52 
freq.      70.22  E(vib)   ...       0.50 
freq.      86.73  E(vib)   ...       0.48 
freq.      97.05  E(vib)   ...       0.46 
freq.     157.78  E(vib)   ...       0.40 
freq.     218.13  E(vib)   ...       0.33 
freq.     222.99  E(vib)   ...       0.33 
freq.     240.41  E(vib)   ...       0.31 
freq.     286.00  E(vib)   ...       0.27 
freq.     315.64  E(vib)   ...       0.25 
freq.     333.70  E(vib)   ...       0.24 
freq.     413.75  E(vib)   ...       0.19 
freq.     421.44  E(vib)   ...       0.18 
freq.     457.04  E(vib)   ...       0.16 
freq.     483.89  E(vib)   ...       0.15 
freq.     534.46  E(vib)   ...       0.13 
freq.     605.88  E(vib)   ...       0.10 
freq.     612.98  E(vib)   ...       0.10 
freq.     718.03  E(vib)   ...       0.07 
freq.     738.16  E(vib)   ...       0.06 
freq.     749.77  E(vib)   ...       0.06 
freq.     799.75  E(vib)   ...       0.05 
freq.     816.60  E(vib)   ...       0.05 
freq.     836.37  E(vib)   ...       0.04 
freq.     875.79  E(vib)   ...       0.04 
freq.     890.55  E(vib)   ...       0.04 
freq.     930.56  E(vib)   ...       0.03 
freq.     954.60  E(vib)   ...       0.03 
freq.     956.24  E(vib)   ...       0.03 
freq.    1061.33  E(vib)   ...       0.02 
freq.    1097.49  E(vib)   ...       0.02 
freq.    1109.11  E(vib)   ...       0.02 
freq.    1144.43  E(vib)   ...       0.01 
freq.    1157.10  E(vib)   ...       0.01 
freq.    1240.37  E(vib)   ...       0.01 
freq.    1245.22  E(vib)   ...       0.01 
freq.    1287.75  E(vib)   ...       0.01 
freq.    1294.81  E(vib)   ...       0.01 
freq.    1311.60  E(vib)   ...       0.01 
freq.    1356.24  E(vib)   ...       0.01 
freq.    1364.01  E(vib)   ...       0.01 
freq.    1375.46  E(vib)   ...       0.01 
freq.    1431.44  E(vib)   ...       0.00 
freq.    1448.85  E(vib)   ...       0.00 
freq.    1452.65  E(vib)   ...       0.00 
freq.    1471.66  E(vib)   ...       0.00 
freq.    1476.23  E(vib)   ...       0.00 
freq.    1488.74  E(vib)   ...       0.00 
freq.    1583.38  E(vib)   ...       0.00 
freq.    1612.53  E(vib)   ...       0.00 
freq.    1614.38  E(vib)   ...       0.00 
freq.    2959.23  E(vib)   ...       0.00 
freq.    3017.62  E(vib)   ...       0.00 
freq.    3023.61  E(vib)   ...       0.00 
freq.    3079.98  E(vib)   ...       0.00 
freq.    3099.96  E(vib)   ...       0.00 
freq.    3111.00  E(vib)   ...       0.00 
freq.    3143.06  E(vib)   ...       0.00 
freq.    3300.30  E(vib)   ...       0.00 
freq.    3372.95  E(vib)   ...       0.00 
freq.    3374.27  E(vib)   ...       0.00 
freq.    3630.13  E(vib)   ...       0.00 

------------
INNER ENERGY
------------

The inner energy is: U= E(el) + E(ZPE) + E(vib) + E(rot) + E(trans)
    E(el)   - is the total energy from the electronic structure calculation
              = E(kin-el) + E(nuc-el) + E(el-el) + E(nuc-nuc)
    E(ZPE)  - the the zero temperature vibrational energy from the frequency calculation
    E(vib)  - the the finite temperature correction to E(ZPE) due to population
              of excited vibrational states
    E(rot)  - is the rotational thermal energy
    E(trans)- is the translational thermal energy

Summary of contributions to the inner energy U:
Electronic energy                ...  -2155.97224104 Eh
Zero point energy                ...      0.18143497 Eh     113.85 kcal/mol
Thermal vibrational correction   ...      0.01002478 Eh       6.29 kcal/mol
Thermal rotational correction    ...      0.00141627 Eh       0.89 kcal/mol
Thermal translational correction ...      0.00141627 Eh       0.89 kcal/mol
-----------------------------------------------------------------------
Total thermal energy                  -2155.77794875 Eh


Summary of corrections to the electronic energy:
(perhaps to be used in another calculation)
Total thermal correction                  0.01285732 Eh       8.07 kcal/mol
Non-thermal (ZPE) correction              0.18143497 Eh     113.85 kcal/mol
-----------------------------------------------------------------------
Total correction                          0.19429230 Eh     121.92 kcal/mol


--------
ENTHALPY
--------

The enthalpy is H = U + kB*T
                kB is Boltzmann's constant
Total free energy                 ...  -2155.77794875 Eh 
Thermal Enthalpy correction       ...      0.00094421 Eh       0.59 kcal/mol
-----------------------------------------------------------------------
Total Enthalpy                    ...  -2155.77700454 Eh


Note: Only C1 symmetry has been detected, increase convergence thresholds 
      if your molecule has a higher symmetry. Symmetry factor of 1.0 is   
      used for the rotational entropy correction. 
 

Note: Rotational entropy computed according to Herzberg 
Infrared and Raman Spectra, Chapter V,1, Van Nostrand Reinhold, 1945 
Point Group:  C1, Symmetry Number:   1  
Rotational constants in cm-1:     0.084805     0.008632     0.008035 

Vibrational entropy computed according to the QRRHO of S. Grimme
Chem.Eur.J. 2012 18 9955


-------
ENTROPY
-------

The entropy contributions are T*S = T*(S(el)+S(vib)+S(rot)+S(trans))
     S(el)   - electronic entropy
     S(vib)  - vibrational entropy
     S(rot)  - rotational entropy
     S(trans)- translational entropy
The entropies will be listed as multiplied by the temperature to get
units of energy

Electronic entropy                ...      0.00065446 Eh      0.41 kcal/mol
Vibrational entropy               ...      0.01770746 Eh     11.11 kcal/mol
Rotational entropy                ...      0.01519647 Eh      9.54 kcal/mol
Translational entropy             ...      0.01996671 Eh     12.53 kcal/mol
-----------------------------------------------------------------------
Final entropy term                ...      0.05352509 Eh     33.59 kcal/mol

In case the symmetry of your molecule has not been determined correctly
or in case you have a reason to use a different symmetry number we print 
out the resulting rotational entropy values for sn=1,12 :
 --------------------------------------------------------
|  sn= 1 | S(rot)=       0.01519647 Eh      9.54 kcal/mol|
|  sn= 2 | S(rot)=       0.01454201 Eh      9.13 kcal/mol|
|  sn= 3 | S(rot)=       0.01415918 Eh      8.88 kcal/mol|
|  sn= 4 | S(rot)=       0.01388755 Eh      8.71 kcal/mol|
|  sn= 5 | S(rot)=       0.01367687 Eh      8.58 kcal/mol|
|  sn= 6 | S(rot)=       0.01350472 Eh      8.47 kcal/mol|
|  sn= 7 | S(rot)=       0.01335918 Eh      8.38 kcal/mol|
|  sn= 8 | S(rot)=       0.01323310 Eh      8.30 kcal/mol|
|  sn= 9 | S(rot)=       0.01312189 Eh      8.23 kcal/mol|
|  sn=10 | S(rot)=       0.01302241 Eh      8.17 kcal/mol|
|  sn=11 | S(rot)=       0.01293242 Eh      8.12 kcal/mol|
|  sn=12 | S(rot)=       0.01285027 Eh      8.06 kcal/mol|
 --------------------------------------------------------


-------------------
GIBBS FREE ENERGY
-------------------

The Gibbs free energy is G = H - T*S

Total enthalpy                    ...  -2155.77700454 Eh 
Total entropy correction          ...     -0.05352509 Eh    -33.59 kcal/mol
-----------------------------------------------------------------------
Final Gibbs free energy         ...  -2155.83052963 Eh

For completeness - the Gibbs free energy minus the electronic energy
G-E(el)                           ...      0.14171142 Eh     88.93 kcal/mol


No protocol specified

Timings for individual modules:

Sum of individual times         ...     1352.039 sec (=  22.534 min)
GTO integral calculation        ...        4.248 sec (=   0.071 min)   0.3 %
SCF iterations                  ...       51.513 sec (=   0.859 min)   3.8 %
SCF Gradient evaluation         ...       11.027 sec (=   0.184 min)   0.8 %
Geometry relaxation             ...        0.090 sec (=   0.002 min)   0.0 %
Numerical frequency calculation ...     1285.161 sec (=  21.419 min)  95.1 %



                             ****ORCA TERMINATED NORMALLY****
TOTAL RUN TIME: 0 days 2 hours 9 minutes 55 seconds 414 msec
