
                                 *****************
                                 * O   R   C   A *
                                 *****************

                                            #,                                       
                                            ###                                      
                                            ####                                     
                                            #####                                    
                                            ######                                   
                                           ########,                                 
                                     ,,################,,,,,                         
                               ,,#################################,,                 
                          ,,##########################################,,             
                       ,#########################################, ''#####,          
                    ,#############################################,,   '####,        
                  ,##################################################,,,,####,       
                ,###########''''           ''''###############################       
              ,#####''   ,,,,##########,,,,          '''####'''          '####       
            ,##' ,,,,###########################,,,                        '##       
           ' ,,###''''                  '''############,,,                           
         ,,##''                                '''############,,,,        ,,,,,,###''
      ,#''                                            '''#######################'''  
     '                                                          ''''####''''         
             ,#######,   #######,   ,#######,      ##                                
            ,#'     '#,  ##    ##  ,#'     '#,    #''#        ######   ,####,        
            ##       ##  ##   ,#'  ##            #'  '#       #        #'  '#        
            ##       ##  #######   ##           ,######,      #####,   #    #        
            '#,     ,#'  ##    ##  '#,     ,#' ,#      #,         ##   #,  ,#        
             '#######'   ##     ##  '#######'  #'      '#     #####' # '####'        



                  #######################################################
                  #                        -***-                        #
                  #          Department of theory and spectroscopy      #
                  #    Directorship and core code : Frank Neese         #
                  #        Max Planck Institute fuer Kohlenforschung    #
                  #                Kaiser Wilhelm Platz 1               #
                  #                 D-45470 Muelheim/Ruhr               #
                  #                      Germany                        #
                  #                                                     #
                  #                  All rights reserved                #
                  #                        -***-                        #
                  #######################################################


                         Program Version 5.0.2 -  RELEASE  -


 With contributions from (in alphabetic order):
   Daniel Aravena         : Magnetic Suceptibility
   Michael Atanasov       : Ab Initio Ligand Field Theory (pilot matlab implementation)
   Alexander A. Auer      : GIAO ZORA, VPT2 properties, NMR spectrum
   Ute Becker             : Parallelization
   Giovanni Bistoni       : ED, misc. LED, open-shell LED, HFLD
   Martin Brehm           : Molecular dynamics
   Dmytro Bykov           : SCF Hessian
   Vijay G. Chilkuri      : MRCI spin determinant printing, contributions to CSF-ICE
   Dipayan Datta          : RHF DLPNO-CCSD density
   Achintya Kumar Dutta   : EOM-CC, STEOM-CC
   Dmitry Ganyushin       : Spin-Orbit,Spin-Spin,Magnetic field MRCI
   Miquel Garcia          : C-PCM and meta-GGA Hessian, CC/C-PCM, Gaussian charge scheme
   Yang Guo               : DLPNO-NEVPT2, F12-NEVPT2, CIM, IAO-localization
   Andreas Hansen         : Spin unrestricted coupled pair/coupled cluster methods
   Benjamin Helmich-Paris : MC-RPA, TRAH-SCF, COSX integrals
   Lee Huntington         : MR-EOM, pCC
   Robert Izsak           : Overlap fitted RIJCOSX, COSX-SCS-MP3, EOM
   Marcus Kettner         : VPT2
   Christian Kollmar      : KDIIS, OOCD, Brueckner-CCSD(T), CCSD density, CASPT2, CASPT2-K
   Simone Kossmann        : Meta GGA functionals, TD-DFT gradient, OOMP2, MP2 Hessian
   Martin Krupicka        : Initial AUTO-CI
   Lucas Lang             : DCDCAS
   Marvin Lechner         : AUTO-CI (C++ implementation), FIC-MRCC
   Dagmar Lenk            : GEPOL surface, SMD
   Dimitrios Liakos       : Extrapolation schemes; Compound Job, initial MDCI parallelization
   Dimitrios Manganas     : Further ROCIS development; embedding schemes
   Dimitrios Pantazis     : SARC Basis sets
   Anastasios Papadopoulos: AUTO-CI, single reference methods and gradients
   Taras Petrenko         : DFT Hessian,TD-DFT gradient, ASA, ECA, R-Raman, ABS, FL, XAS/XES, NRVS
   Peter Pinski           : DLPNO-MP2, DLPNO-MP2 Gradient
   Christoph Reimann      : Effective Core Potentials
   Marius Retegan         : Local ZFS, SOC
   Christoph Riplinger    : Optimizer, TS searches, QM/MM, DLPNO-CCSD(T), (RO)-DLPNO pert. Triples
   Tobias Risthaus        : Range-separated hybrids, TD-DFT gradient, RPA, STAB
   Michael Roemelt        : Original ROCIS implementation
   Masaaki Saitow         : Open-shell DLPNO-CCSD energy and density
   Barbara Sandhoefer     : DKH picture change effects
   Avijit Sen             : IP-ROCIS
   Kantharuban Sivalingam : CASSCF convergence, NEVPT2, FIC-MRCI
   Bernardo de Souza      : ESD, SOC TD-DFT
   Georgi Stoychev        : AutoAux, RI-MP2 NMR, DLPNO-MP2 response
   Willem Van den Heuvel  : Paramagnetic NMR
   Boris Wezisla          : Elementary symmetry handling
   Frank Wennmohs         : Technical directorship


 We gratefully acknowledge several colleagues who have allowed us to
 interface, adapt or use parts of their codes:
   Stefan Grimme, W. Hujo, H. Kruse, P. Pracht,  : VdW corrections, initial TS optimization,
                  C. Bannwarth, S. Ehlert          DFT functionals, gCP, sTDA/sTD-DF
   Ed Valeev, F. Pavosevic, A. Kumar             : LibInt (2-el integral package), F12 methods
   Garnet Chan, S. Sharma, J. Yang, R. Olivares  : DMRG
   Ulf Ekstrom                                   : XCFun DFT Library
   Mihaly Kallay                                 : mrcc  (arbitrary order and MRCC methods)
   Jiri Pittner, Ondrej Demel                    : Mk-CCSD
   Frank Weinhold                                : gennbo (NPA and NBO analysis)
   Christopher J. Cramer and Donald G. Truhlar   : smd solvation model
   Lars Goerigk                                  : TD-DFT with DH, B97 family of functionals
   V. Asgeirsson, H. Jonsson                     : NEB implementation
   FAccTs GmbH                                   : IRC, NEB, NEB-TS, DLPNO-Multilevel, CI-OPT
                                                   MM, QMMM, 2- and 3-layer-ONIOM, Crystal-QMMM,
                                                   LR-CPCM, SF, NACMEs, symmetry and pop. for TD-DFT,
                                                   nearIR, NL-DFT gradient (VV10), updates on ESD,
                                                   ML-optimized integration grids
   S Lehtola, MJT Oliveira, MAL Marques          : LibXC Library
   Liviu Ungur et al                             : ANISO software


 Your calculation uses the libint2 library for the computation of 2-el integrals
 For citations please refer to: http://libint.valeyev.net

 Your ORCA version has been built with support for libXC version: 5.1.0
 For citations please refer to: https://tddft.org/programs/libxc/

 This ORCA versions uses:
   CBLAS   interface :  Fast vector & matrix operations
   LAPACKE interface :  Fast linear algebra routines
   SCALAPACK package :  Parallel linear algebra routines
   Shared memory     :  Shared parallel matrices
   BLAS/LAPACK       :  OpenBLAS 0.3.15  USE64BITINT DYNAMIC_ARCH NO_AFFINITY Haswell SINGLE_THREADED
        Core in use  :  Haswell
   Copyright (c) 2011-2014, The OpenBLAS Project


Your calculation utilizes the atom-pairwise dispersion correction
with the Becke-Johnson damping scheme (D3BJ)
Cite in your paper:
S.Grimme, S.Ehrlich, L.Goerigk, J Comput Chem, (2011), 32, 1456–1465 
S.Grimme, J.Antony, S.Ehrlich and H.Krieg, J.Chem.Phys., 132, (2010), 154104 
   

================================================================================

----- Orbital basis set information -----
Your calculation utilizes the basis: def2-TZVP
   F. Weigend and R. Ahlrichs, Phys. Chem. Chem. Phys. 7, 3297 (2005).

----- AuxJ basis set information -----
Your calculation utilizes the auxiliary basis: def2/J
   F. Weigend, Phys. Chem. Chem. Phys. 8, 1057 (2006).

================================================================================
                                        WARNINGS
                       Please study these warnings very carefully!
================================================================================


WARNING: your system is open-shell and RHF/RKS was chosen
  ===> : WILL SWITCH to UHF/UKS


WARNING: The environment variable RSH_COMMAND is not set!
  ===> : All Displacements for the Numerical Hessian or Gradient calculation
         will be started on localhost

INFO   : the flag for use of the SHARK integral package has been found!

Your calculation utilizes the atom-pairwise dispersion correction
with the Becke-Johnson damping scheme (D3BJ)
Cite in your paper:
S.Grimme, S.Ehrlich, L.Goerigk, J Comput Chem, (2011), 32, 1456–1465 
S.Grimme, J.Antony, S.Ehrlich and H.Krieg, J.Chem.Phys., 132, (2010), 154104 
   

================================================================================

----- Orbital basis set information -----
Your calculation utilizes the basis: def2-TZVP
   F. Weigend and R. Ahlrichs, Phys. Chem. Chem. Phys. 7, 3297 (2005).

----- AuxJ basis set information -----
Your calculation utilizes the auxiliary basis: def2/J
   F. Weigend, Phys. Chem. Chem. Phys. 8, 1057 (2006).

================================================================================
                                        WARNINGS
                       Please study these warnings very carefully!
================================================================================


WARNING: MOInp is set but Guess=PModel. MOInp will be ignored!
         To read the initial guess from a file you must also specify
         'MORead' in the simple input or 'Guess MORead' in the %scf block


WARNING: The environment variable RSH_COMMAND is not set!
  ===> : All Displacements for the Numerical Hessian or Gradient calculation
         will be started on localhost

INFO   : the flag for use of the SHARK integral package has been found!

Your calculation utilizes the atom-pairwise dispersion correction
with the Becke-Johnson damping scheme (D3BJ)
Cite in your paper:
S.Grimme, S.Ehrlich, L.Goerigk, J Comput Chem, (2011), 32, 1456–1465 
S.Grimme, J.Antony, S.Ehrlich and H.Krieg, J.Chem.Phys., 132, (2010), 154104 
   

================================================================================

----- Orbital basis set information -----
Your calculation utilizes the basis: def2-TZVP
   F. Weigend and R. Ahlrichs, Phys. Chem. Chem. Phys. 7, 3297 (2005).

----- AuxJ basis set information -----
Your calculation utilizes the auxiliary basis: def2/J
   F. Weigend, Phys. Chem. Chem. Phys. 8, 1057 (2006).

================================================================================
                                        WARNINGS
                       Please study these warnings very carefully!
================================================================================


WARNING: MOInp is set but Guess=PModel. MOInp will be ignored!
         To read the initial guess from a file you must also specify
         'MORead' in the simple input or 'Guess MORead' in the %scf block


WARNING: The environment variable RSH_COMMAND is not set!
  ===> : All Displacements for the Numerical Hessian or Gradient calculation
         will be started on localhost

INFO   : the flag for use of the SHARK integral package has been found!

Your calculation utilizes the atom-pairwise dispersion correction
with the Becke-Johnson damping scheme (D3BJ)
Cite in your paper:
S.Grimme, S.Ehrlich, L.Goerigk, J Comput Chem, (2011), 32, 1456–1465 
S.Grimme, J.Antony, S.Ehrlich and H.Krieg, J.Chem.Phys., 132, (2010), 154104 
   

================================================================================

----- Orbital basis set information -----
Your calculation utilizes the basis: def2-TZVP
   F. Weigend and R. Ahlrichs, Phys. Chem. Chem. Phys. 7, 3297 (2005).

----- AuxJ basis set information -----
Your calculation utilizes the auxiliary basis: def2/J
   F. Weigend, Phys. Chem. Chem. Phys. 8, 1057 (2006).

================================================================================
                                        WARNINGS
                       Please study these warnings very carefully!
================================================================================


WARNING: MOInp is set but Guess=PModel. MOInp will be ignored!
         To read the initial guess from a file you must also specify
         'MORead' in the simple input or 'Guess MORead' in the %scf block


WARNING: The environment variable RSH_COMMAND is not set!
  ===> : All Displacements for the Numerical Hessian or Gradient calculation
         will be started on localhost

INFO   : the flag for use of the SHARK integral package has been found!

Your calculation utilizes the atom-pairwise dispersion correction
with the Becke-Johnson damping scheme (D3BJ)
Cite in your paper:
S.Grimme, S.Ehrlich, L.Goerigk, J Comput Chem, (2011), 32, 1456–1465 
S.Grimme, J.Antony, S.Ehrlich and H.Krieg, J.Chem.Phys., 132, (2010), 154104 
   

================================================================================

----- Orbital basis set information -----
Your calculation utilizes the basis: def2-TZVP
   F. Weigend and R. Ahlrichs, Phys. Chem. Chem. Phys. 7, 3297 (2005).

----- AuxJ basis set information -----
Your calculation utilizes the auxiliary basis: def2/J
   F. Weigend, Phys. Chem. Chem. Phys. 8, 1057 (2006).

================================================================================
                                        WARNINGS
                       Please study these warnings very carefully!
================================================================================


WARNING: MOInp is set but Guess=PModel. MOInp will be ignored!
         To read the initial guess from a file you must also specify
         'MORead' in the simple input or 'Guess MORead' in the %scf block


WARNING: The environment variable RSH_COMMAND is not set!
  ===> : All Displacements for the Numerical Hessian or Gradient calculation
         will be started on localhost

INFO   : the flag for use of the SHARK integral package has been found!

================================================================================
                                       INPUT FILE
================================================================================
NAME = ex.inp
|  1> ! PBE D3 def2-TZVP opt numfreq PModel NOAUTOSTART cpcm(water)
|  2> %pal nprocs=16 end
|  3> %geom maxiter=150 end
|  4> %base "neutral"
|  5> *xyz 2 2
|  6>   C   -0.09625132784858     -0.83014044113634     -0.32058670956934
|  7>   C   -1.14917678578247      1.77380209762231     -0.10040610052142
|  8>   C   -1.40726909443459     -0.63697454609702      0.07501724068257
|  9>   C   0.71441660698379      0.27624551956974     -0.61691418915943
| 10>   C   0.16192370510394      1.57775567741507     -0.49211659748429
| 11>   C   -1.95998372292605      0.66777040058595      0.20507529693621
| 12>   O   -3.21641194565174      0.88021901923172      0.62034754502382
| 13>   O   -2.26330205144206     -1.69066056250320      0.37527946844450
| 14>   C   2.12710738233498      0.09998746688251     -1.00880958356815
| 15>   C   3.13043575469044      0.12866027626271      0.24811163170759
| 16>   N   3.04920087235915     -0.99884553325748      1.09606243617321
| 17>   H   0.29208255206064     -1.84666077525368     -0.41667546030671
| 18>   H   -1.57560907068954      2.77281139994372     -0.00629271023981
| 19>   H   0.79188368069171      2.44056886317851     -0.71541930516175
| 20>   H   -3.65895771389159      0.03562100245161      0.85057826901209
| 21>   H   -1.74875276712752     -2.47747340222523      0.65995981005602
| 22>   H   2.46311472157054      0.93042209051749     -1.64603970326234
| 23>   H   2.29742900822527     -0.85266328290480     -1.52665576591883
| 24>   H   4.13147958756760      0.18174190481853     -0.20360851869634
| 25>   H   2.93449998023194      1.04572200482614      0.81727020313446
| 26>   H   3.31907733172525     -1.90078053575860      0.70766377439073
| 27>   H   2.27798768838803     -1.04832767297380      1.75869682739928
| 28>   Cu  -3.60576987613917     -2.30406631919585     -0.96681096907207
| 29> *
| 30> 
| 31> $new_job
| 32> 
| 33> ! PBE D3 def2-TZVP opt numfreq PModel NOAUTOSTART cpcm(water)
| 34> %pal nprocs=16 end
| 35> %geom maxiter=150 end
| 36> %base "protonated"
| 37> *xyz 3 2
| 38>   C   1.73208716760524      1.52163363804737      0.09400973992142
| 39>   C   0.12269499200650     -0.82479950744431      0.01987288424070
| 40>   C   2.33639508362140      0.29697282445491      0.24975126598006
| 41>   C   0.33459659144966      1.57696447231623     -0.09487409588101
| 42>   C   -0.49138594327014      0.39986605277504     -0.13627008083436
| 43>   C   1.53150451446463     -0.90779117185879      0.24072305869684
| 44>   O   3.72104252869975      0.13908753045604      0.46378757070754
| 45>   O   2.01915772372487     -2.10379651260847      0.45939167759571
| 46>   C   -1.97656158864718      0.61078692557388     -0.33872145929303
| 47>   C   -2.84669940206333     -0.64734035589458     -0.32825017799819
| 48>   N   -4.31380373232302     -0.30676081195722     -0.51735376940365
| 49>   H   -4.49810224973394      0.16530432408188     -1.41893419544991
| 50>   H   -4.89128643548083     -1.16589430595938     -0.50680319545201
| 51>   H   -4.67770343639510      0.30577357754062      0.23243086334703
| 52>   H   2.30960001260237      2.44920004963617      0.11620229884757
| 53>   H   -0.41175403822471     -1.77650568290962      0.01388088575970
| 54>   H   -0.12665020753816      2.56047191410180     -0.21912243351271
| 55>   H   3.98701922369121      0.62914435528248      1.27591365242638
| 56>   H   2.97697241761329     -2.11669029537517      0.68787636478124
| 57>   H   -2.10124567219892      1.15581844011477     -1.29343235582567
| 58>   H   -2.31359066752325      1.31462753838409      0.44508573299230
| 59>   H   -2.58892060084130     -1.33784431134977     -1.14292926681201
| 60>   H   -2.78194576019267     -1.18640525161908      0.62699702115356
| 61>   Cu  5.28716540795366      0.19260894121113     -0.89908495398752
| 62> *
| 63> 
| 64> $new_job
| 65> 
| 66> ! PBE D3 def2-TZVP opt numfreq PModel NOAUTOSTART cpcm(water)
| 67> %pal nprocs=16 end
| 68> %geom maxiter=150 end
| 69> %base "deprotonated"
| 70> *xyz 1 2
| 71>   O   2.26084164507082     -2.09499237526522     -0.12351261060848
| 72>   O   3.27386854970865      0.29715698877875      0.44665616671966
| 73>   N   -3.02740748338264      0.52479273278855      1.23273161164724
| 74>   C   -2.14687041584005     -0.16364650145423     -0.99170149515556
| 75>   C   -0.69737902796406     -0.02676563842593     -0.63825948473826
| 76>   C   -3.01805255613176     -0.54182735240212      0.22650159243340
| 77>   C   0.12269389407859     -1.15642220062577     -0.56417119074986
| 78>   C   -0.15240391080706      1.25674121081090     -0.33120094336480
| 79>   C   1.45761632113997     -1.02493307227655     -0.19539634202655
| 80>   C   1.16521005383529      1.41126026877946      0.03688309729763
| 81>   C   2.01771993259306      0.27883190843810      0.11686637758466
| 82>   H   -2.27046352860052     -0.95363932536336     -1.74777617017862
| 83>   H   -2.52174709448240      0.78216097935800     -1.40992035348513
| 84>   H   -2.66214312595285     -1.51560440645898      0.61420099665110
| 85>   H   -4.04942526279055     -0.68684429192360     -0.12729505951784
| 86>   H   -0.27063620219543     -2.14761968442168     -0.79767549418140
| 87>   H   -0.80623609652440      2.12814965537032     -0.39237555639691
| 88>   H   1.58599173621695      2.39235516220607      0.27107223114466
| 89>   H   -2.11727820978539      0.57006791860815      1.69990506993360
| 90>   H   -3.70470684710996      0.29367837794818      1.96333244464691
| 91>   H   3.15125473374909     -1.76842873442043      0.14836729596643
| 92>   Cu  4.28872476217466      1.77763339795136      0.92934939537811
| 93> *
| 94> 
| 95> $new_job
| 96> 
| 97> ! PBE D3 def2-TZVP opt numfreq PModel NOAUTOSTART cpcm(water)
| 98> %pal nprocs=16 end
| 99> %geom maxiter=150 end
|100> %base "2x_deprotonated"
|101> *xyz 0 2
|102>   O   2.43586882996748     -1.90023421851759     -0.01777148959863
|103>   O   3.43804502215138      0.60425778472090      0.52730566387379
|104>   N   -4.31855210478787     -0.12203736968418      0.43629000220145
|105>   C   -2.04261783260381     -0.03217420918978     -0.69635778568917
|106>   C   -0.56961664668622      0.11369149596034     -0.44052433828931
|107>   C   -2.86947893788980      0.00191705158457      0.61225554920640
|108>   C   0.25040836093671     -1.00001173084815     -0.30857526300864
|109>   C   -0.00651529176187      1.41435782607464     -0.27852422011331
|110>   C   1.63763311007587     -0.87403724975237     -0.04743867291060
|111>   C   1.33434066833833      1.59440115762532      0.00389502522517
|112>   C   2.19437431387157      0.47656912028070      0.17346684689896
|113>   H   -2.39708518617520      0.78440774420579     -1.34681070405581
|114>   H   -2.24707070091452     -0.98408315670070     -1.21131132410423
|115>   H   -2.66310959321948      0.94453096832017      1.14374492090914
|116>   H   -2.52612685112091     -0.81474596642492      1.26735939139948
|117>   H   -0.15702830111019     -2.00516293943112     -0.44646832450790
|118>   H   -0.65960599294308      2.28423579571361     -0.38377341041693
|119>   H   1.75566858006615      2.59424524131224      0.12909145049747
|120>   H   -4.52556109051840     -0.98855796426193     -0.06910904321185
|121>   H   -4.65249401955347      0.63411204435591     -0.16845207029437
|122>   Cu  4.24854924787735     -1.22651091234346      0.48276729298892
|123> *
|124> 
|125> $new_job
|126> 
|127> ! PBE D3 def2-TZVP opt numfreq PModel NOAUTOSTART cpcm(water)
|128> %pal nprocs=16 end
|129> %geom maxiter=150 end
|130> %base "zwitterione"
|131> *xyz 2 2
|132>  O   3.30366993058166     -1.96116423120905     -0.07903755898060
|133>   C   2.45537634520808     -0.91232967153148     -0.11655050258584
|134>   C   1.09516653815941     -1.01444701749633     -0.38020341419974
|135>   C   0.29961464111158      0.13577387365669     -0.39723741292432
|136>   C   -1.17726731017997      0.03032086917832     -0.65483894509809
|137>   C   -1.95791872113163      0.00358119087738      0.66016646747512
|138>   N   -3.42985148355613     -0.11151314205860      0.39208122611513
|139>   H   -3.96924686462271     -0.11582003201216      1.26869303358015
|140>   H   -3.77218688878039      0.67541983676992     -0.17736525518638
|141>   H   -3.65644390755740     -0.98033076117034     -0.11364087046523
|142>   C   0.88806549018807      1.40525168763659     -0.14386730642484
|143>   C   2.23366747195883      1.52652203158535      0.11782043121139
|144>   C   3.07215081131400      0.37409385429533      0.14299839711272
|145>   O   4.33980308631136      0.47128061412231      0.38751948584957
|146>   H   2.84653474375635     -2.80976340895502     -0.25266075276072
|147>   H   0.65393623989510     -1.99483040148719     -0.57615336768136
|148>   H   -1.51160869437814      0.89422322200072     -1.25145515478867
|149>   H   -1.39414110179680     -0.88568446557019     -1.22430496214171
|150>   H   -1.67808637838891     -0.85763260387537      1.27860390765398
|151>   H   -1.81038461488373      0.92396417397687      1.23781534267957
|152>   H   0.25390590642505      2.29354521124659     -0.16568337540406
|153>   H   2.69623327673630      2.49571186235556      0.30809756593263
|154>   Cu  5.45154907463003     -1.05594399333591      0.40883942403131
|155> *
|156> 
|157>                          ****END OF INPUT****
================================================================================


                 $$$$$$$$$$$$$$$$$$$$$$$$$$$$$$$$$$$$$$$$$$$$$$ 
                 $ THERE ARE  5 JOBS TO BE PROCESSED THIS RUN $
                 $$$$$$$$$$$$$$$$$$$$$$$$$$$$$$$$$$$$$$$$$$$$$$ 




                 $$$$$$$$$$$$$$$$  JOB NUMBER  1 $$$$$$$$$$$$$$


                       *****************************
                       * Geometry Optimization Run *
                       *****************************

Geometry optimization settings:
Update method            Update   .... BFGS
Choice of coordinates    CoordSys .... Z-matrix Internals
Initial Hessian          InHess   .... Almoef's Model

Convergence Tolerances:
Energy Change            TolE     ....  5.0000e-06 Eh
Max. Gradient            TolMAXG  ....  3.0000e-04 Eh/bohr
RMS Gradient             TolRMSG  ....  1.0000e-04 Eh/bohr
Max. Displacement        TolMAXD  ....  4.0000e-03 bohr
RMS Displacement         TolRMSD  ....  2.0000e-03 bohr
Strict Convergence                ....  False
------------------------------------------------------------------------------
                        ORCA OPTIMIZATION COORDINATE SETUP
------------------------------------------------------------------------------

The optimization will be done in new redundant internal coordinates
Making redundant internal coordinates   ...  (new redundants) done
Evaluating the initial hessian          ...  (Almloef) done
Evaluating the coordinates              ...  done
Calculating the B-matrix                .... done
Calculating the G-matrix                .... done
Diagonalizing the G-matrix              .... done
Small eigenvalue found = 1.463e-02
Small eigenvalue found = 2.842e-02
The first mode is                       ....   48
The number of degrees of freedom        ....   63

    -----------------------------------------------------------------
                    Redundant Internal Coordinates


    -----------------------------------------------------------------
         Definition                    Initial Value    Approx d2E/dq
    -----------------------------------------------------------------
      1. B(C   2,C   0)                  1.3830         0.641162   
      2. B(C   3,C   0)                  1.4032         0.595134   
      3. B(C   4,C   3)                  1.4194         0.560792   
      4. B(C   4,C   1)                  1.3823         0.642635   
      5. B(C   5,C   2)                  1.4229         0.553579   
      6. B(C   5,C   1)                  1.4050         0.591293   
      7. B(O   6,C   5)                  1.3402         0.671880   
      8. B(O   7,C   2)                  1.3904         0.558781   
      9. B(C   8,C   3)                  1.4766         0.454544   
     10. B(C   9,C   8)                  1.6085         0.279964   
     11. B(N  10,C   9)                  1.4131         0.514043   
     12. B(H  11,C   0)                  1.0924         0.356932   
     13. B(H  12,C   1)                  1.0903         0.359723   
     14. B(H  13,C   4)                  1.0914         0.358249   
     15. B(H  14,O   6)                  0.9809         0.481498   
     16. B(H  15,O   7)                  0.9823         0.479090   
     17. B(H  16,C   8)                  1.0994         0.347933   
     18. B(H  17,C   8)                  1.0976         0.350190   
     19. B(H  18,C   9)                  1.0995         0.347716   
     20. B(H  19,C   9)                  1.0970         0.351002   
     21. B(H  20,N  10)                  1.0184         0.419533   
     22. B(H  21,N  10)                  1.0180         0.420192   
     23. B(Cu 22,O   7)                  1.9949         0.613612   
     24. A(C   3,C   0,H  11)          120.6463         0.349953   
     25. A(C   2,C   0,H  11)          119.4805         0.354390   
     26. A(C   2,C   0,C   3)          119.8637         0.433491   
     27. A(C   5,C   1,H  12)          118.4785         0.350030   
     28. A(C   4,C   1,H  12)          121.6934         0.354996   
     29. A(C   4,C   1,C   5)          119.8224         0.433165   
     30. A(C   5,C   2,O   7)          115.8487         0.414804   
     31. A(C   0,C   2,C   5)          121.4962         0.427893   
     32. A(C   0,C   2,O   7)          122.6545         0.425817   
     33. A(C   4,C   3,C   8)          120.3432         0.403429   
     34. A(C   0,C   3,C   8)          120.9733         0.407687   
     35. A(C   0,C   3,C   4)          118.6541         0.423205   
     36. A(C   1,C   4,C   3)          121.6101         0.429064   
     37. A(C   3,C   4,H  13)          118.8309         0.346680   
     38. A(C   1,C   4,H  13)          119.5588         0.354749   
     39. A(C   1,C   5,O   6)          118.9200         0.433789   
     40. A(C   1,C   5,C   2)          118.5411         0.421739   
     41. A(C   2,C   5,O   6)          122.5351         0.428683   
     42. A(C   5,O   6,H  14)          111.0502         0.370340   
     43. A(C   2,O   7,H  15)          110.3103         0.358538   
     44. A(H  15,O   7,Cu 22)          107.5289         0.407731   
     45. A(C   2,O   7,Cu 22)          120.1358         0.471906   
     46. A(C   9,C   8,H  17)          106.6994         0.308058   
     47. A(C   3,C   8,C   9)          112.7831         0.357681   
     48. A(C   3,C   8,H  17)          112.1655         0.333454   
     49. A(H  16,C   8,H  17)          109.5559         0.288014   
     50. A(C   9,C   8,H  16)          104.4081         0.307738   
     51. A(C   3,C   8,H  16)          110.8598         0.333096   
     52. A(N  10,C   9,H  19)          110.2078         0.338418   
     53. A(C   8,C   9,H  19)          107.9944         0.308173   
     54. A(N  10,C   9,H  18)          109.7173         0.337888   
     55. A(C   8,C   9,H  18)          104.3427         0.307707   
     56. A(C   8,C   9,N  10)          114.7597         0.362993   
     57. A(H  18,C   9,H  19)          109.5979         0.288091   
     58. A(H  20,N  10,H  21)          113.9510         0.300354   
     59. A(C   9,N  10,H  21)          118.2245         0.345758   
     60. A(C   9,N  10,H  20)          117.5516         0.345666   
     61. D(O   7,C   2,C   0,C   3)    179.6348         0.028569   
     62. D(O   7,C   2,C   0,H  11)      0.7494         0.028569   
     63. D(C   5,C   2,C   0,C   3)     -0.6707         0.028569   
     64. D(C   5,C   2,C   0,H  11)   -179.5562         0.028569   
     65. D(C   8,C   3,C   0,H  11)     -2.6723         0.024396   
     66. D(C   8,C   3,C   0,C   2)    178.4555         0.024396   
     67. D(C   4,C   3,C   0,C   2)      0.4193         0.024396   
     68. D(C   4,C   3,C   0,H  11)    179.2915         0.024396   
     69. D(H  13,C   4,C   1,C   5)   -179.1803         0.028709   
     70. D(H  13,C   4,C   1,H  12)     -0.0594         0.028709   
     71. D(C   1,C   4,C   3,C   0)     -0.6040         0.021544   
     72. D(C   1,C   4,C   3,C   8)   -178.6530         0.021544   
     73. D(H  13,C   4,C   3,C   0)    179.5953         0.021544   
     74. D(C   3,C   4,C   1,H  12)   -179.8587         0.028709   
     75. D(C   3,C   4,C   1,C   5)      1.0203         0.028709   
     76. D(H  13,C   4,C   3,C   8)      1.5462         0.021544   
     77. D(O   6,C   5,C   2,O   7)      1.5058         0.020973   
     78. D(O   6,C   5,C   2,C   0)   -178.2083         0.020973   
     79. D(C   1,C   5,C   2,O   7)   -179.2198         0.020973   
     80. D(O   6,C   5,C   1,H  12)     -1.0693         0.024066   
     81. D(C   1,C   5,C   2,C   0)      1.0661         0.020973   
     82. D(O   6,C   5,C   1,C   4)    178.0798         0.024066   
     83. D(C   2,C   5,C   1,H  12)    179.6296         0.024066   
     84. D(C   2,C   5,C   1,C   4)     -1.2213         0.024066   
     85. D(H  14,O   6,C   5,C   2)      2.6086         0.033551   
     86. D(H  14,O   6,C   5,C   1)   -176.6631         0.033551   
     87. D(Cu 22,O   7,C   2,C   5)     79.8730         0.024930   
     88. D(Cu 22,O   7,C   2,C   0)   -100.4166         0.024930   
     89. D(H  15,O   7,C   2,C   5)   -154.2390         0.024930   
     90. D(H  15,O   7,C   2,C   0)     25.4715         0.024930   
     91. D(C   9,C   8,C   3,C   0)    -90.7322         0.015234   
     92. D(H  17,C   8,C   3,C   4)   -152.2218         0.015234   
     93. D(H  17,C   8,C   3,C   0)     29.7750         0.015234   
     94. D(H  16,C   8,C   3,C   4)    -29.3999         0.015234   
     95. D(H  16,C   8,C   3,C   0)    152.5969         0.015234   
     96. D(C   9,C   8,C   3,C   4)     87.2710         0.015234   
     97. D(H  19,C   9,C   8,H  17)   -176.5654         0.006672   
     98. D(H  19,C   9,C   8,H  16)     67.4655         0.006672   
     99. D(H  19,C   9,C   8,C   3)    -52.9763         0.006672   
    100. D(H  18,C   9,C   8,H  17)     66.8791         0.006672   
    101. D(H  18,C   9,C   8,H  16)    -49.0900         0.006672   
    102. D(H  18,C   9,C   8,C   3)   -169.5318         0.006672   
    103. D(N  10,C   9,C   8,H  17)    -53.2146         0.006672   
    104. D(N  10,C   9,C   8,H  16)   -169.1837         0.006672   
    105. D(N  10,C   9,C   8,C   3)     70.3746         0.006672   
    106. D(H  21,N  10,C   9,H  19)     43.9026         0.022715   
    107. D(H  21,N  10,C   9,H  18)    164.6729         0.022715   
    108. D(H  21,N  10,C   9,C   8)    -78.2567         0.022715   
    109. D(H  20,N  10,C   9,H  19)   -172.9962         0.022715   
    110. D(H  20,N  10,C   9,H  18)    -52.2259         0.022715   
    111. D(H  20,N  10,C   9,C   8)     64.8444         0.022715   
    -----------------------------------------------------------------

Number of atoms                         .... 23
Number of degrees of freedom            .... 111

         *************************************************************
         *                GEOMETRY OPTIMIZATION CYCLE   1            *
         *************************************************************
---------------------------------
CARTESIAN COORDINATES (ANGSTROEM)
---------------------------------
  C     -0.096251   -0.830140   -0.320587
  C     -1.149177    1.773802   -0.100406
  C     -1.407269   -0.636975    0.075017
  C      0.714417    0.276246   -0.616914
  C      0.161924    1.577756   -0.492117
  C     -1.959984    0.667770    0.205075
  O     -3.216412    0.880219    0.620348
  O     -2.263302   -1.690661    0.375279
  C      2.127107    0.099987   -1.008810
  C      3.130436    0.128660    0.248112
  N      3.049201   -0.998846    1.096062
  H      0.292083   -1.846661   -0.416675
  H     -1.575609    2.772811   -0.006293
  H      0.791884    2.440569   -0.715419
  H     -3.658958    0.035621    0.850578
  H     -1.748753   -2.477473    0.659960
  H      2.463115    0.930422   -1.646040
  H      2.297429   -0.852663   -1.526656
  H      4.131480    0.181742   -0.203609
  H      2.934500    1.045722    0.817270
  H      3.319077   -1.900781    0.707664
  H      2.277988   -1.048328    1.758697
  Cu    -3.605770   -2.304066   -0.966811

----------------------------
CARTESIAN COORDINATES (A.U.)
----------------------------
  NO LB      ZA    FRAG     MASS         X           Y           Z
   0 C     6.0000    0    12.011   -0.181889   -1.568738   -0.605821
   1 C     6.0000    0    12.011   -2.171629    3.352000   -0.189740
   2 C     6.0000    0    12.011   -2.659353   -1.203707    0.141762
   3 C     6.0000    0    12.011    1.350052    0.522028   -1.165799
   4 C     6.0000    0    12.011    0.305991    2.981526   -0.929966
   5 C     6.0000    0    12.011   -3.703832    1.261903    0.387536
   6 O     8.0000    0    15.999   -6.078138    1.663373    1.172287
   7 O     8.0000    0    15.999   -4.277021   -3.194885    0.709175
   8 C     6.0000    0    12.011    4.019650    0.188949   -1.906374
   9 C     6.0000    0    12.011    5.915666    0.243133    0.468863
  10 N     7.0000    0    14.007    5.762155   -1.887545    2.071258
  11 H     1.0000    0     1.008    0.551956   -3.489683   -0.787403
  12 H     1.0000    0     1.008   -2.977470    5.239854   -0.011891
  13 H     1.0000    0     1.008    1.496443    4.612007   -1.351947
  14 H     1.0000    0     1.008   -6.914428    0.067314    1.607360
  15 H     1.0000    0     1.008   -3.304664   -4.681746    1.247143
  16 H     1.0000    0     1.008    4.654612    1.758243   -3.110564
  17 H     1.0000    0     1.008    4.341512   -1.611300   -2.884961
  18 H     1.0000    0     1.008    7.807365    0.343442   -0.384764
  19 H     1.0000    0     1.008    5.545401    1.976128    1.544417
  20 H     1.0000    0     1.008    6.272147   -3.591955    1.337291
  21 H     1.0000    0     1.008    4.304773   -1.981052    3.323455
  22 Cu   29.0000    0    63.550   -6.813918   -4.354054   -1.827008

--------------------------------
INTERNAL COORDINATES (ANGSTROEM)
--------------------------------
 C      0   0   0     0.000000000000     0.00000000     0.00000000
 C      1   0   0     2.817383230184     0.00000000     0.00000000
 C      1   2   0     1.382961724982    59.62002973     0.00000000
 C      1   2   3     1.403239954453    60.24378083   179.87074870
 C      2   1   3     1.382337082448    59.48998731   179.82519893
 C      2   1   3     1.405002807243    60.33626113     0.53800358
 O      6   2   1     1.340222867458   118.91998206   178.78762431
 O      3   1   2     1.390397083596   122.65445507   179.76420474
 C      4   1   2     1.476598837890   120.97331129   178.32696572
 C      9   4   1     1.608521337807   112.78307655   269.26776674
 N     10   9   4     1.413113237997   114.75972090    70.37458349
 H      1   2   3     1.092405529086   178.75980491    43.75347402
 H      2   1   3     1.090285013181   178.80817271     6.59460296
 H      5   2   1     1.091402887859   119.55877239   180.10572933
 H      7   6   2     0.980917301919   111.05015120   183.33688803
 H      8   3   1     0.982282193486   110.31027308    25.47151942
 H      9   4   1     1.099356548895   110.85978184   152.59687243
 H      9   4   1     1.097596271810   112.16547110    29.77499644
 H     10   9   4     1.099526038306   104.34265780   190.46820578
 H     10   9   4     1.096966052864   107.99439663   307.02370893
 H     11  10   9     1.018417189825   117.55164051    64.84442189
 H     11  10   9     1.017989486054   118.22448135   281.74330060
 Cu     8   3   1     1.994916846679   120.13584602   259.58344045

---------------------------
INTERNAL COORDINATES (A.U.)
---------------------------
 C      0   0   0     0.000000000000     0.00000000     0.00000000
 C      1   0   0     5.324082719350     0.00000000     0.00000000
 C      1   2   0     2.613418913911    59.62002973     0.00000000
 C      1   2   3     2.651739214092    60.24378083   179.87074870
 C      2   1   3     2.612238510590    59.48998731   179.82519893
 C      2   1   3     2.655070523081    60.33626113     0.53800358
 O      6   2   1     2.532654177915   118.91998206   178.78762431
 O      3   1   2     2.627469705400   122.65445507   179.76420474
 C      4   1   2     2.790367413279   120.97331129   178.32696572
 C      9   4   1     3.039664809024   112.78307655   269.26776674
 N     10   9   4     2.670397016033   114.75972090    70.37458349
 H      1   2   3     2.064347277154   178.75980491    43.75347402
 H      2   1   3     2.060340082830   178.80817271     6.59460296
 H      5   2   1     2.062452559823   119.55877239   180.10572933
 H      7   6   2     1.853665060652   111.05015120   183.33688803
 H      8   3   1     1.856244331916   110.31027308    25.47151942
 H      9   4   1     2.077482800944   110.85978184   152.59687243
 H      9   4   1     2.074156359334   112.16547110    29.77499644
 H     10   9   4     2.077803089513   104.34265780   190.46820578
 H     10   9   4     2.072965418122   107.99439663   307.02370893
 H     11  10   9     1.924529578847   117.55164051    64.84442189
 H     11  10   9     1.923721335854   118.22448135   281.74330060
 Cu     8   3   1     3.769846500169   120.13584602   259.58344045

---------------------
BASIS SET INFORMATION
---------------------
There are 5 groups of distinct atoms

 Group   1 Type C   : 11s6p2d1f contracted to 5s3p2d1f pattern {62111/411/11/1}
 Group   2 Type O   : 11s6p2d1f contracted to 5s3p2d1f pattern {62111/411/11/1}
 Group   3 Type N   : 11s6p2d1f contracted to 5s3p2d1f pattern {62111/411/11/1}
 Group   4 Type H   : 5s1p contracted to 3s1p pattern {311/1}
 Group   5 Type Cu  : 17s11p7d1f contracted to 6s4p4d1f pattern {842111/6311/4111/1}

Atom   0C    basis set group =>   1
Atom   1C    basis set group =>   1
Atom   2C    basis set group =>   1
Atom   3C    basis set group =>   1
Atom   4C    basis set group =>   1
Atom   5C    basis set group =>   1
Atom   6O    basis set group =>   2
Atom   7O    basis set group =>   2
Atom   8C    basis set group =>   1
Atom   9C    basis set group =>   1
Atom  10N    basis set group =>   3
Atom  11H    basis set group =>   4
Atom  12H    basis set group =>   4
Atom  13H    basis set group =>   4
Atom  14H    basis set group =>   4
Atom  15H    basis set group =>   4
Atom  16H    basis set group =>   4
Atom  17H    basis set group =>   4
Atom  18H    basis set group =>   4
Atom  19H    basis set group =>   4
Atom  20H    basis set group =>   4
Atom  21H    basis set group =>   4
Atom  22Cu   basis set group =>   5
---------------------------------
AUXILIARY/J BASIS SET INFORMATION
---------------------------------
There are 5 groups of distinct atoms

 Group   1 Type C   : 12s5p4d2f1g contracted to 6s4p3d1f1g pattern {711111/2111/211/2/1}
 Group   2 Type O   : 12s5p4d2f1g contracted to 6s4p3d1f1g pattern {711111/2111/211/2/1}
 Group   3 Type N   : 12s5p4d2f1g contracted to 6s4p3d1f1g pattern {711111/2111/211/2/1}
 Group   4 Type H   : 5s2p1d contracted to 3s1p1d pattern {311/2/1}
 Group   5 Type Cu  : 19s5p5d3f3g contracted to 8s5p4d3f3g pattern {121111111/11111/2111/111/111}

Atom   0C    basis set group =>   1
Atom   1C    basis set group =>   1
Atom   2C    basis set group =>   1
Atom   3C    basis set group =>   1
Atom   4C    basis set group =>   1
Atom   5C    basis set group =>   1
Atom   6O    basis set group =>   2
Atom   7O    basis set group =>   2
Atom   8C    basis set group =>   1
Atom   9C    basis set group =>   1
Atom  10N    basis set group =>   3
Atom  11H    basis set group =>   4
Atom  12H    basis set group =>   4
Atom  13H    basis set group =>   4
Atom  14H    basis set group =>   4
Atom  15H    basis set group =>   4
Atom  16H    basis set group =>   4
Atom  17H    basis set group =>   4
Atom  18H    basis set group =>   4
Atom  19H    basis set group =>   4
Atom  20H    basis set group =>   4
Atom  21H    basis set group =>   4
Atom  22Cu   basis set group =>   5


           ************************************************************
           *        Program running with 16 parallel MPI-processes    *
           *              working on a common directory               *
           ************************************************************
------------------------------------------------------------------------------
                           ORCA GTO INTEGRAL CALCULATION
                           -- RI-GTO INTEGRALS CHOSEN --
------------------------------------------------------------------------------
------------------------------------------------------------------------------
                   ___                                                        
                  /   \      - P O W E R E D   B Y -                         
                 /     \                                                     
                 |  |  |   _    _      __       _____    __    __             
                 |  |  |  | |  | |    /  \     |  _  \  |  |  /  |          
                  \  \/   | |  | |   /    \    | | | |  |  | /  /          
                 / \  \   | |__| |  /  /\  \   | |_| |  |  |/  /          
                |  |  |   |  __  | /  /__\  \  |    /   |      \           
                |  |  |   | |  | | |   __   |  |    \   |  |\   \          
                \     /   | |  | | |  |  |  |  | |\  \  |  | \   \       
                 \___/    |_|  |_| |__|  |__|  |_| \__\ |__|  \__/        
                                                                              
                      - O R C A' S   B I G   F R I E N D -                    
                                      &                                       
                       - I N T E G R A L  F E E D E R -                       
                                                                              
 v1 FN, 2020, v2 2021                                                         
------------------------------------------------------------------------------


Reading SHARK input file neutral.SHARKINP.tmp ... ok
----------------------
SHARK INTEGRAL PACKAGE
----------------------

Number of atoms                             ...     23
Number of basis functions                   ...    452
Number of shells                            ...    180
Maximum angular momentum                    ...      3
Integral batch strategy                     ... SHARK/LIBINT Hybrid
RI-J (if used) integral strategy            ... SPLIT-RIJ (Revised 2003 algorithm where possible)
Printlevel                                  ...      1
Contraction scheme used                     ... SEGMENTED contraction
Coulomb Range Separation                    ... NOT USED
Exchange Range Separation                   ... NOT USED
Finite Nucleus Model                        ... NOT USED
Auxiliary Coulomb fitting basis             ... AVAILABLE
   # of basis functions in Aux-J            ...    751
   # of shells in Aux-J                     ...    243
   Maximum angular momentum in Aux-J        ...      4
Auxiliary J/K fitting basis                 ... NOT available
Auxiliary Correlation fitting basis         ... NOT available
Auxiliary 'external' fitting basis          ... NOT available
Integral threshold                          ...     2.500000e-11
Primitive cut-off                           ...     2.500000e-12
Primitive pair pre-selection threshold      ...     2.500000e-12

Calculating pre-screening integrals         ... done (  0.1 sec) Dimension = 180
Organizing shell pair data                  ... done (  0.3 sec)
Shell pair information
Total number of shell pairs                 ...     16290
Shell pairs after pre-screening             ...     13367
Total number of primitive shell pairs       ...     52337
Primitive shell pairs kept                  ...     29688
          la=0 lb=0:   3572 shell pairs
          la=1 lb=0:   3759 shell pairs
          la=1 lb=1:   1015 shell pairs
          la=2 lb=0:   1988 shell pairs
          la=2 lb=1:   1065 shell pairs
          la=2 lb=2:    296 shell pairs
          la=3 lb=0:    879 shell pairs
          la=3 lb=1:    476 shell pairs
          la=3 lb=2:    254 shell pairs
          la=3 lb=3:     63 shell pairs

Calculating one electron integrals          ... done (  0.0 sec)
Calculating RI/J V-Matrix + Cholesky decomp.... done (  0.0 sec)
Calculating Nuclear repulsion               ... done (  0.0 sec) ENN=    907.090616050776 Eh

SHARK setup successfully completed in   0.8 seconds

Maximum memory used throughout the entire GTOINT-calculation: 29.8 MB


           ************************************************************
           *        Program running with 16 parallel MPI-processes    *
           *              working on a common directory               *
           ************************************************************
-------------------------------------------------------------------------------
                                 ORCA SCF
-------------------------------------------------------------------------------

------------
SCF SETTINGS
------------
Hamiltonian:
 Density Functional     Method          .... DFT(GTOs)
 Exchange Functional    Exchange        .... PBE
   PBE kappa parameter   XKappa         ....  0.804000
   PBE mue parameter    XMuePBE         ....  0.219520
 Correlation Functional Correlation     .... PBE
   PBE beta parameter  CBetaPBE         ....  0.066725
 LDA part of GGA corr.  LDAOpt          .... PW91-LDA
 Gradients option       PostSCFGGA      .... off
   Density functional embedding theory  .... OFF
   NL short-range parameter             ....  6.400000
 RI-approximation to the Coulomb term is turned on
   Number of AuxJ basis functions       .... 751


General Settings:
 Integral files         IntName         .... neutral
 Hartree-Fock type      HFTyp           .... UHF
 Total Charge           Charge          ....    2
 Multiplicity           Mult            ....    2
 Number of Electrons    NEL             ....  109
 Basis Dimension        Dim             ....  452
 Nuclear Repulsion      ENuc            ....    907.0906160508 Eh

Convergence Acceleration:
 DIIS                   CNVDIIS         .... on
   Start iteration      DIISMaxIt       ....    12
   Startup error        DIISStart       ....  0.200000
   # of expansion vecs  DIISMaxEq       ....     5
   Bias factor          DIISBfac        ....   1.050
   Max. coefficient     DIISMaxC        ....  10.000
 Trust-Rad. Augm. Hess. CNVTRAH         .... auto
   Auto Start mean grad. ratio tolernc. ....  1.125000
   Auto Start start iteration           ....    20
   Auto Start num. interpolation iter.  ....    10
   Max. Number of Micro iterations      ....    16
   Max. Number of Macro iterations      .... Maxiter - #DIIS iter
   Number of Davidson start vectors     ....     2
   Converg. threshold I  (grad. norm)   ....   1.000e-05
   Converg. threshold II (energy diff.) ....   1.000e-08
   Grad. Scal. Fac. for Micro threshold ....   0.100
   Minimum threshold for Micro iter.    ....   0.010
   NR start threshold (gradient norm)   ....   0.001
   Initial trust radius                 ....   0.400
   Minimum AH scaling param. (alpha)    ....   1.000
   Maximum AH scaling param. (alpha)    .... 1000.000
   Orbital update algorithm             .... Taylor
   White noise on init. David. guess    .... on
   Maximum white noise                  ....   0.010
   Quad. conv. algorithm                .... NR
 SOSCF                  CNVSOSCF        .... off
 Level Shifting         CNVShift        .... on
   Level shift para.    LevelShift      ....    0.2500
   Turn off err/grad.   ShiftErr        ....    0.0010
 Zerner damping         CNVZerner       .... off
 Static damping         CNVDamp         .... on
   Fraction old density DampFac         ....    0.7000
   Max. Damping (<1)    DampMax         ....    0.9800
   Min. Damping (>=0)   DampMin         ....    0.0000
   Turn off err/grad.   DampErr         ....    0.1000
 Fernandez-Rico         CNVRico         .... off

SCF Procedure:
 Maximum # iterations   MaxIter         ....   125
 SCF integral mode      SCFMode         .... Direct
   Integral package                     .... SHARK and LIBINT hybrid scheme
 Reset frequency        DirectResetFreq ....    20
 Integral Threshold     Thresh          ....  2.500e-11 Eh
 Primitive CutOff       TCut            ....  2.500e-12 Eh

Convergence Tolerance:
 Convergence Check Mode ConvCheckMode   .... Total+1el-Energy
 Convergence forced     ConvForced      .... 0
 Energy Change          TolE            ....  1.000e-08 Eh
 1-El. energy change                    ....  1.000e-05 Eh
 DIIS Error             TolErr          ....  5.000e-07


Diagonalization of the overlap matrix:
Smallest eigenvalue                        ... 9.098e-06
Time for diagonalization                   ...    0.054 sec
Threshold for overlap eigenvalues          ... 1.000e-08
Number of eigenvalues below threshold      ... 0
Time for construction of square roots      ...    0.033 sec
Total time needed                          ...    0.089 sec

Time for model grid setup =    0.180 sec

------------------------------
INITIAL GUESS: MODEL POTENTIAL
------------------------------
Loading Hartree-Fock densities                     ... done
Calculating cut-offs                               ... done
Initializing the effective Hamiltonian             ... done
Setting up the integral package (SHARK)            ... done
Starting the Coulomb interaction                   ... done (   0.2 sec)
Reading the grid                                   ... done
Mapping shells                                     ... done
Starting the XC term evaluation                    ... done (   0.1 sec)
  promolecular density results
     # of electrons  =    110.991278036
     EX              =   -132.516740469
     EC              =     -4.089199367
     EX+EC           =   -136.605939836
Transforming the Hamiltonian                       ... done (   0.0 sec)
Diagonalizing the Hamiltonian                      ... done (   0.0 sec)
Back transforming the eigenvectors                 ... done (   0.0 sec)
Now organizing SCF variables                       ... done
                      ------------------
                      INITIAL GUESS DONE (   0.6 sec)
                      ------------------
-------------------
DFT GRID GENERATION
-------------------

General Integration Accuracy     IntAcc      ... 4.388
Radial Grid Type                 RadialGrid  ... OptM3 with GC (2021)
Angular Grid (max. ang.)         AngularGrid ... 4 (Lebedev-302)
Angular grid pruning method      GridPruning ... 4 (adaptive)
Weight generation scheme         WeightScheme... Becke
Basis function cutoff            BFCut       ... 1.0000e-11
Integration weight cutoff        WCut        ... 1.0000e-14
Angular grids for H and He will be reduced by one unit
Partially contracted basis set               ... off
Rotationally invariant grid construction     ... off

Total number of grid points                  ...   112416
Total number of batches                      ...     1767
Average number of points per batch           ...       63
Average number of grid points per atom       ...     4888
Time for grid setup =    0.897 sec


--------------------
CPCM SOLVATION MODEL
--------------------
CPCM parameters:
  Epsilon                                         ...      80.4000
  Refrac                                          ...       1.3300
  Rsolv                                           ...       1.3000
  Surface type                                    ... GAUSSIAN VDW
  Epsilon function type                           ...         CPCM
Radii:
 Radius for C  used is    3.8550 Bohr (=   2.0400 Ang.)
 Radius for O  used is    3.4469 Bohr (=   1.8240 Ang.)
 Radius for N  used is    3.5149 Bohr (=   1.8600 Ang.)
 Radius for H  used is    2.4944 Bohr (=   1.3200 Ang.)
 Radius for Cu used is    3.1747 Bohr (=   1.6800 Ang.)
Calculating surface                               ...        done! (  0.0s)
GEPOL surface points                              ...         1340
GEPOL Volume                                      ...    1383.0853
GEPOL Surface-area                                ...     785.0264
Calculating surface distance matrix               ...        done! (  0.0s)
Performing Cholesky decomposition & store         ...        done! (  0.2s)
Overall time for CPCM initialization              ...                 0.2s
--------------
SCF ITERATIONS
--------------
ITER       Energy         Delta-E        Max-DP      RMS-DP      [F,P]     Damp
               ***  Starting incremental Fock matrix formation  ***
  0  -2155.9361170305   0.000000000000 0.13249682  0.00085160  0.2601195 0.7000
  1  -2156.0627015720  -0.126584541470 0.11958235  0.00072228  0.0949612 0.7000
                               ***Turning on DIIS***
  2  -2156.1033744306  -0.040672858582 0.11097881  0.00098217  0.0206644 0.0000
  3  -2156.1685375873  -0.065163156697 0.12222424  0.00066894  0.0778318 0.0000
  4  -2156.1891975470  -0.020659959713 0.04406931  0.00025051  0.0122286 0.0000
  5  -2156.1908033983  -0.001605851350 0.02481803  0.00013583  0.0091609 0.0000
  6  -2156.1911680911  -0.000364692794 0.01195863  0.00006647  0.0040051 0.0000
  7  -2156.1912429836  -0.000074892534 0.00568399  0.00003374  0.0057130 0.0000
  8  -2156.1912989178  -0.000055934177 0.00309407  0.00001924  0.0012314 0.0000
  9  -2156.1913215265  -0.000022608627 0.01089152  0.00008383  0.0008836 0.0000
 10  -2156.1910467188   0.000274807604 0.00021105  0.00000169  0.0092565 0.0000
 11  -2156.1910290048   0.000017714092 0.00042946  0.00000292  0.0095806 0.0000
 12  -2156.1910037911   0.000025213651 0.00023625  0.00000178  0.0101352 0.0000
 13  -2156.1909892374   0.000014553727 0.00027778  0.00000215  0.0103172 0.0000
 14  -2156.1909788476   0.000010389750 0.00896160  0.00007045  0.0103480 0.0000
 15  -2156.1910936680  -0.000114820353 0.00345700  0.00002292  0.0109097 0.0000
 16  -2156.1912723711  -0.000178703164 0.00189661  0.00001424  0.0060690 0.0000
 17  -2156.1913075774  -0.000035206303 0.00141659  0.00001107  0.0044488 0.0000
 18  -2156.1913323340  -0.000024756583 0.00165510  0.00001197  0.0030078 0.0000
 19  -2156.1913497551  -0.000017421077 0.00166402  0.00001086  0.0014376 0.0000
               *** Restarting incremental Fock matrix formation ***
                                   *** Resetting DIIS ***
 20  -2156.1913560479  -0.000006292777 0.00457816  0.00003286  0.0005420 0.0000
 21  -2156.1912731198   0.000082928034 0.00029073  0.00000228  0.0073912 0.0000
 22  -2156.1912978421  -0.000024722211 0.00018857  0.00000158  0.0057042 0.0000

 WARNING: the maximum gradient error descreased on average only by a factor   1.1
          during the last 20 iterations

                      *** Initiating the TRAH-SCF procedure ***


TRAH GRID
---------

General Integration Accuracy     IntAcc      ... 3.467
Radial Grid Type                 RadialGrid  ... OptM3 with GC (2021)
Angular Grid (max. ang.)         AngularGrid ... 1 (Lebedev-50)
Angular grid pruning method      GridPruning ... 4 (adaptive)
Weight generation scheme         WeightScheme... Becke
Basis function cutoff            BFCut       ... 1.0000e-11
Integration weight cutoff        WCut        ... 1.0000e-14
Angular grids for H and He will be reduced by one unit
Partially contracted basis set               ... off
Rotationally invariant grid construction     ... off

Total number of grid points                  ...    18852
Total number of batches                      ...      303
Average number of points per batch           ...       62
Average number of grid points per atom       ...      820

 --------------------------------------------------------------------------------------------
   Iter.        energy            ||Error||_2        Shift      TRadius  Mac/Mic        Rej.
 --------------------------------------------------------------------------------------------
    0      -2156.191307680423     1.180967e-02                     0.400 (TRAH MAcro)   No
WARNING : small    HOMO - LUMO gap : (op =  beta) 0.014943
    0     dE    -2.000899e-05     8.221861e-03    -2.0009e-05      0.002 (TRAH MIcro)
    0     dE    -4.711748e-05     1.399883e-03    -4.7108e-05      0.014 (TRAH MIcro)
    0     dE    -4.829098e-05     5.662403e-04    -4.8280e-05      0.015 (TRAH MIcro)
    1      -2156.191356765699     5.799314e-04                           (NR   MAcro)
WARNING : small    HOMO - LUMO gap : (op =  beta) 0.011854
    1     dE    -9.076085e-08     6.030836e-04                           (NR   MIcro)
    1     dE    -2.542949e-07     3.173928e-04                           (NR   MIcro)
    1     dE    -3.122415e-07     1.836986e-04                           (NR   MIcro)
    1     dE    -3.189137e-07     9.858368e-05                           (NR   MIcro)
    1     dE    -3.219546e-07     3.155741e-05                           (NR   MIcro)
    1     dE    -3.222978e-07     1.752781e-05                           (NR   MIcro)
    1     dE    -3.223927e-07     4.919859e-06                           (NR   MIcro)
    1     dE    -3.224032e-07     2.616697e-06                           (NR   MIcro)
    2      -2156.191357088635     5.477357e-06                           (NR   MAcro)
WARNING : small    HOMO - LUMO gap : (op =  beta) 0.011758
    2     dE    -6.319944e-12     3.028462e-06                           (NR   MIcro)
    2     dE    -9.156592e-12     2.079673e-06                           (NR   MIcro)
    2     dE    -1.152524e-11     9.361121e-07                           (NR   MIcro)
    3      -2156.191357088645     9.369842e-07                           (NR   MAcro)
WARNING : small    HOMO - LUMO gap : (op =  beta) 0.011756

               *****************************************************
               *                     SUCCESS                       *
               *           SCF CONVERGED AFTER  41 CYCLES          *
               *****************************************************


----------------
TOTAL SCF ENERGY
----------------

Total Energy       :        -2156.19135709 Eh          -58672.94970 eV

Components:
Nuclear Repulsion  :          907.09061605 Eh           24683.19053 eV
Electronic Energy  :        -3063.28197314 Eh          -83356.14023 eV
One Electron Energy:        -4755.54057251 Eh         -129404.83779 eV
Two Electron Energy:         1692.25859937 Eh           46048.69756 eV
CPCM Dielectric    :           -0.34844991 Eh              -9.48180 eV

Virial components:
Potential Energy   :        -4307.34952509 Eh         -117208.93936 eV
Kinetic Energy     :         2151.15816800 Eh           58535.98966 eV
Virial Ratio       :            2.00233976


DFT components:
N(Alpha)           :       55.000065262493 electrons
N(Beta)            :       54.000066135776 electrons
N(Total)           :      109.000131398268 electrons
E(X)               :     -133.412322297366 Eh       
E(C)               :       -4.039030568808 Eh       
E(XC)              :     -137.451352866173 Eh       
DFET-embed. en.    :        0.000000000000 Eh       
CPCM Solvation Model Properties:
Surface-charge          :           -2.02379533
Charge-correction       :            0.00626915 Eh               0.17059 eV
Free-energy (cav+disp)  :  This term is not implemented in the current solvation scheme

---------------
SCF CONVERGENCE
---------------

  Last Energy change         ...   -9.5497e-12  Tolerance :   1.0000e-08
  Last Orbital Gradient      ...    9.3698e-07  Tolerance :   1.0000e-05
  Last Orbital Rotation      ...    9.4728e-06

             **** THE GBW FILE WAS UPDATED (neutral.gbw) ****
             **** DENSITY neutral.scfp WAS UPDATED ****
             **** ENERGY FILE WAS UPDATED (neutral.en.tmp) ****
----------------------
UHF SPIN CONTAMINATION
----------------------

Warning: in a DFT calculation there is little theoretical justification to 
         calculate <S**2> as in Hartree-Fock theory. We will do it anyways
         but you should keep in mind that the values have only limited relevance

Expectation value of <S**2>     :     0.751980
Ideal value S*(S+1) for S=0.5   :     0.750000
Deviation                       :     0.001980

             **** THE GBW FILE WAS UPDATED (neutral.gbw) ****
             **** DENSITY neutral.scfp WAS UPDATED ****
----------------
ORBITAL ENERGIES
----------------
                 SPIN UP ORBITALS
  NO   OCC          E(Eh)            E(eV) 
   0   1.0000    -321.530120     -8749.2794 
   1   1.0000     -38.289341     -1041.9059 
   2   1.0000     -33.581627      -913.8025 
   3   1.0000     -33.580120      -913.7615 
   4   1.0000     -33.579582      -913.7469 
   5   1.0000     -18.865532      -513.3572 
   6   1.0000     -18.828384      -512.3464 
   7   1.0000     -14.023503      -381.5989 
   8   1.0000      -9.995606      -271.9943 
   9   1.0000      -9.993733      -271.9433 
  10   1.0000      -9.940224      -270.4872 
  11   1.0000      -9.930747      -270.2294 
  12   1.0000      -9.920077      -269.9390 
  13   1.0000      -9.919304      -269.9180 
  14   1.0000      -9.915703      -269.8200 
  15   1.0000      -9.912295      -269.7273 
  16   1.0000      -4.127772      -112.3224 
  17   1.0000      -2.670239       -72.6609 
  18   1.0000      -2.661642       -72.4270 
  19   1.0000      -2.658776       -72.3490 
  20   1.0000      -1.044737       -28.4287 
  21   1.0000      -1.016644       -27.6643 
  22   1.0000      -0.853689       -23.2301 
  23   1.0000      -0.815097       -22.1799 
  24   1.0000      -0.736495       -20.0410 
  25   1.0000      -0.713368       -19.4117 
  26   1.0000      -0.671078       -18.2610 
  27   1.0000      -0.620721       -16.8907 
  28   1.0000      -0.603624       -16.4254 
  29   1.0000      -0.560024       -15.2390 
  30   1.0000      -0.546522       -14.8716 
  31   1.0000      -0.523822       -14.2539 
  32   1.0000      -0.495005       -13.4698 
  33   1.0000      -0.473347       -12.8804 
  34   1.0000      -0.466983       -12.7073 
  35   1.0000      -0.438922       -11.9437 
  36   1.0000      -0.432502       -11.7690 
  37   1.0000      -0.414370       -11.2756 
  38   1.0000      -0.412274       -11.2185 
  39   1.0000      -0.404255       -11.0003 
  40   1.0000      -0.386066       -10.5054 
  41   1.0000      -0.379069       -10.3150 
  42   1.0000      -0.368859       -10.0372 
  43   1.0000      -0.341884        -9.3031 
  44   1.0000      -0.336405        -9.1541 
  45   1.0000      -0.329556        -8.9677 
  46   1.0000      -0.321673        -8.7532 
  47   1.0000      -0.262849        -7.1525 
  48   1.0000      -0.250214        -6.8087 
  49   1.0000      -0.235755        -6.4152 
  50   1.0000      -0.232728        -6.3328 
  51   1.0000      -0.230848        -6.2817 
  52   1.0000      -0.230420        -6.2700 
  53   1.0000      -0.228995        -6.2313 
  54   1.0000      -0.219607        -5.9758 
  55   0.0000      -0.116766        -3.1774 
  56   0.0000      -0.071655        -1.9498 
  57   0.0000      -0.067468        -1.8359 
  58   0.0000      -0.004178        -0.1137 
  59   0.0000       0.009337         0.2541 
  60   0.0000       0.021382         0.5818 
  61   0.0000       0.033972         0.9244 
  62   0.0000       0.039630         1.0784 
  63   0.0000       0.042419         1.1543 
  64   0.0000       0.050964         1.3868 
  65   0.0000       0.068921         1.8754 
  66   0.0000       0.071124         1.9354 
  67   0.0000       0.073291         1.9943 
  68   0.0000       0.083012         2.2589 
  69   0.0000       0.091919         2.5012 
  70   0.0000       0.094071         2.5598 
  71   0.0000       0.106089         2.8868 
  72   0.0000       0.107666         2.9298 
  73   0.0000       0.120326         3.2742 
  74   0.0000       0.126645         3.4462 
  75   0.0000       0.131995         3.5918 
  76   0.0000       0.139502         3.7960 
  77   0.0000       0.147134         4.0037 
  78   0.0000       0.154471         4.2034 
  79   0.0000       0.162160         4.4126 
  80   0.0000       0.179315         4.8794 
  81   0.0000       0.187130         5.0921 
  82   0.0000       0.189673         5.1613 
  83   0.0000       0.197976         5.3872 
  84   0.0000       0.205481         5.5914 
  85   0.0000       0.212043         5.7700 
  86   0.0000       0.215357         5.8602 
  87   0.0000       0.221528         6.0281 
  88   0.0000       0.229760         6.2521 
  89   0.0000       0.239780         6.5248 
  90   0.0000       0.244072         6.6415 
  91   0.0000       0.252175         6.8620 
  92   0.0000       0.256632         6.9833 
  93   0.0000       0.270502         7.3607 
  94   0.0000       0.273736         7.4487 
  95   0.0000       0.279361         7.6018 
  96   0.0000       0.285808         7.7772 
  97   0.0000       0.287362         7.8195 
  98   0.0000       0.292421         7.9572 
  99   0.0000       0.297619         8.0986 
 100   0.0000       0.309214         8.4142 
 101   0.0000       0.313358         8.5269 
 102   0.0000       0.318328         8.6621 
 103   0.0000       0.325688         8.8624 
 104   0.0000       0.341267         9.2864 
 105   0.0000       0.348239         9.4761 
 106   0.0000       0.351401         9.5621 
 107   0.0000       0.360364         9.8060 
 108   0.0000       0.377799        10.2804 
 109   0.0000       0.378965        10.3122 
 110   0.0000       0.384261        10.4563 
 111   0.0000       0.389060        10.5869 
 112   0.0000       0.394394        10.7320 
 113   0.0000       0.403074        10.9682 
 114   0.0000       0.413881        11.2623 
 115   0.0000       0.422946        11.5090 
 116   0.0000       0.431139        11.7319 
 117   0.0000       0.438073        11.9206 
 118   0.0000       0.443237        12.0611 
 119   0.0000       0.455217        12.3871 
 120   0.0000       0.466864        12.7040 
 121   0.0000       0.473083        12.8732 
 122   0.0000       0.489543        13.3212 
 123   0.0000       0.498746        13.5716 
 124   0.0000       0.505837        13.7645 
 125   0.0000       0.512480        13.9453 
 126   0.0000       0.521059        14.1787 
 127   0.0000       0.524115        14.2619 
 128   0.0000       0.539042        14.6681 
 129   0.0000       0.546722        14.8771 
 130   0.0000       0.555170        15.1070 
 131   0.0000       0.559187        15.2162 
 132   0.0000       0.584440        15.9034 
 133   0.0000       0.592453        16.1215 
 134   0.0000       0.612163        16.6578 
 135   0.0000       0.615648        16.7526 
 136   0.0000       0.622581        16.9413 
 137   0.0000       0.643088        17.4993 
 138   0.0000       0.646926        17.6037 
 139   0.0000       0.652197        17.7472 
 140   0.0000       0.669314        18.2130 
 141   0.0000       0.679489        18.4898 
 142   0.0000       0.691010        18.8033 
 143   0.0000       0.717382        19.5210 
 144   0.0000       0.722226        19.6528 
 145   0.0000       0.729112        19.8401 
 146   0.0000       0.747754        20.3474 
 147   0.0000       0.769701        20.9446 
 148   0.0000       0.780855        21.2481 
 149   0.0000       0.788497        21.4561 
 150   0.0000       0.797407        21.6985 
 151   0.0000       0.808442        21.9988 
 152   0.0000       0.814477        22.1630 
 153   0.0000       0.820316        22.3219 
 154   0.0000       0.848971        23.1017 
 155   0.0000       0.864727        23.5304 
 156   0.0000       0.866345        23.5744 
 157   0.0000       0.882109        24.0034 
 158   0.0000       0.893037        24.3008 
 159   0.0000       0.912805        24.8387 
 160   0.0000       0.927500        25.2386 
 161   0.0000       0.936229        25.4761 
 162   0.0000       0.947944        25.7949 
 163   0.0000       0.958330        26.0775 
 164   0.0000       0.975806        26.5530 
 165   0.0000       0.988001        26.8849 
 166   0.0000       0.992940        27.0193 
 167   0.0000       1.008439        27.4410 
 168   0.0000       1.035067        28.1656 
 169   0.0000       1.047856        28.5136 
 170   0.0000       1.060671        28.8623 
 171   0.0000       1.073632        29.2150 
 172   0.0000       1.089404        29.6442 
 173   0.0000       1.100190        29.9377 
 174   0.0000       1.115255        30.3476 
 175   0.0000       1.126195        30.6453 
 176   0.0000       1.138869        30.9902 
 177   0.0000       1.158112        31.5138 
 178   0.0000       1.180105        32.1123 
 179   0.0000       1.183521        32.2052 
 180   0.0000       1.191556        32.4239 
 181   0.0000       1.220476        33.2108 
 182   0.0000       1.231175        33.5020 
 183   0.0000       1.247361        33.9424 
 184   0.0000       1.257579        34.2205 
 185   0.0000       1.266100        34.4523 
 186   0.0000       1.274057        34.6689 
 187   0.0000       1.292969        35.1835 
 188   0.0000       1.320863        35.9425 
 189   0.0000       1.327432        36.1213 
 190   0.0000       1.340829        36.4858 
 191   0.0000       1.361587        37.0507 
 192   0.0000       1.383841        37.6562 
 193   0.0000       1.409554        38.3559 
 194   0.0000       1.412098        38.4251 
 195   0.0000       1.441841        39.2345 
 196   0.0000       1.444849        39.3163 
 197   0.0000       1.459714        39.7208 
 198   0.0000       1.475866        40.1604 
 199   0.0000       1.493380        40.6369 
 200   0.0000       1.506428        40.9920 
 201   0.0000       1.514758        41.2186 
 202   0.0000       1.524332        41.4792 
 203   0.0000       1.535530        41.7839 
 204   0.0000       1.537278        41.8315 
 205   0.0000       1.550196        42.1830 
 206   0.0000       1.577231        42.9186 
 207   0.0000       1.589443        43.2509 
 208   0.0000       1.593314        43.3563 
 209   0.0000       1.614104        43.9220 
 210   0.0000       1.629803        44.3492 
 211   0.0000       1.638735        44.5922 
 212   0.0000       1.651804        44.9479 
 213   0.0000       1.671727        45.4900 
 214   0.0000       1.674095        45.5544 
 215   0.0000       1.719767        46.7972 
 216   0.0000       1.723607        46.9017 
 217   0.0000       1.739990        47.3475 
 218   0.0000       1.748675        47.5839 
 219   0.0000       1.763036        47.9747 
 220   0.0000       1.771445        48.2035 
 221   0.0000       1.794189        48.8224 
 222   0.0000       1.812183        49.3120 
 223   0.0000       1.814199        49.3669 
 224   0.0000       1.832723        49.8709 
 225   0.0000       1.842806        50.1453 
 226   0.0000       1.854621        50.4668 
 227   0.0000       1.867277        50.8112 
 228   0.0000       1.876956        51.0746 
 229   0.0000       1.893657        51.5290 
 230   0.0000       1.906700        51.8840 
 231   0.0000       1.918709        52.2107 
 232   0.0000       1.946057        52.9549 
 233   0.0000       1.957941        53.2783 
 234   0.0000       1.990286        54.1584 
 235   0.0000       1.994934        54.2849 
 236   0.0000       2.019936        54.9652 
 237   0.0000       2.027110        55.1605 
 238   0.0000       2.043301        55.6010 
 239   0.0000       2.054384        55.9026 
 240   0.0000       2.059442        56.0403 
 241   0.0000       2.074244        56.4431 
 242   0.0000       2.083338        56.6905 
 243   0.0000       2.093118        56.9566 
 244   0.0000       2.114029        57.5257 
 245   0.0000       2.124395        57.8077 
 246   0.0000       2.128322        57.9146 
 247   0.0000       2.146027        58.3964 
 248   0.0000       2.181356        59.3577 
 249   0.0000       2.193581        59.6904 
 250   0.0000       2.217513        60.3416 
 251   0.0000       2.224231        60.5244 
 252   0.0000       2.243211        61.0409 
 253   0.0000       2.266679        61.6795 
 254   0.0000       2.289388        62.2974 
 255   0.0000       2.298774        62.5528 
 256   0.0000       2.314245        62.9738 
 257   0.0000       2.333543        63.4989 
 258   0.0000       2.345935        63.8361 
 259   0.0000       2.357904        64.1618 
 260   0.0000       2.373219        64.5786 
 261   0.0000       2.381743        64.8105 
 262   0.0000       2.415716        65.7350 
 263   0.0000       2.437318        66.3228 
 264   0.0000       2.439014        66.3690 
 265   0.0000       2.458456        66.8980 
 266   0.0000       2.466668        67.1214 
 267   0.0000       2.496790        67.9411 
 268   0.0000       2.508214        68.2520 
 269   0.0000       2.516371        68.4739 
 270   0.0000       2.528749        68.8108 
 271   0.0000       2.535677        68.9993 
 272   0.0000       2.555685        69.5437 
 273   0.0000       2.561690        69.7071 
 274   0.0000       2.573917        70.0399 
 275   0.0000       2.594018        70.5868 
 276   0.0000       2.610050        71.0231 
 277   0.0000       2.616366        71.1949 
 278   0.0000       2.644646        71.9645 
 279   0.0000       2.648119        72.0590 
 280   0.0000       2.656799        72.2952 
 281   0.0000       2.672539        72.7235 
 282   0.0000       2.676581        72.8335 
 283   0.0000       2.705960        73.6329 
 284   0.0000       2.711942        73.7957 
 285   0.0000       2.724782        74.1451 
 286   0.0000       2.726846        74.2013 
 287   0.0000       2.755829        74.9899 
 288   0.0000       2.767525        75.3082 
 289   0.0000       2.782787        75.7235 
 290   0.0000       2.810877        76.4878 
 291   0.0000       2.812302        76.5266 
 292   0.0000       2.818181        76.6866 
 293   0.0000       2.829302        76.9892 
 294   0.0000       2.852433        77.6187 
 295   0.0000       2.859513        77.8113 
 296   0.0000       2.892064        78.6971 
 297   0.0000       2.897750        78.8518 
 298   0.0000       2.912958        79.2656 
 299   0.0000       2.919980        79.4567 
 300   0.0000       2.946970        80.1911 
 301   0.0000       2.961943        80.5986 
 302   0.0000       2.991605        81.4057 
 303   0.0000       3.002585        81.7045 
 304   0.0000       3.031052        82.4791 
 305   0.0000       3.033729        82.5520 
 306   0.0000       3.049432        82.9793 
 307   0.0000       3.059506        83.2534 
 308   0.0000       3.064041        83.3768 
 309   0.0000       3.080215        83.8169 
 310   0.0000       3.081258        83.8453 
 311   0.0000       3.096687        84.2651 
 312   0.0000       3.098583        84.3167 
 313   0.0000       3.121864        84.9502 
 314   0.0000       3.124898        85.0328 
 315   0.0000       3.132062        85.2277 
 316   0.0000       3.154504        85.8384 
 317   0.0000       3.165472        86.1369 
 318   0.0000       3.177676        86.4690 
 319   0.0000       3.195700        86.9594 
 320   0.0000       3.205364        87.2224 
 321   0.0000       3.217468        87.5518 
 322   0.0000       3.233161        87.9788 
 323   0.0000       3.247350        88.3649 
 324   0.0000       3.258571        88.6702 
 325   0.0000       3.281769        89.3015 
 326   0.0000       3.290766        89.5463 
 327   0.0000       3.305081        89.9358 
 328   0.0000       3.308989        90.0422 
 329   0.0000       3.318923        90.3125 
 330   0.0000       3.328882        90.5835 
 331   0.0000       3.357159        91.3529 
 332   0.0000       3.360611        91.4469 
 333   0.0000       3.384298        92.0914 
 334   0.0000       3.395001        92.3827 
 335   0.0000       3.396936        92.4353 
 336   0.0000       3.408708        92.7557 
 337   0.0000       3.441025        93.6351 
 338   0.0000       3.472511        94.4918 
 339   0.0000       3.496797        95.1527 
 340   0.0000       3.509348        95.4942 
 341   0.0000       3.528920        96.0268 
 342   0.0000       3.539245        96.3078 
 343   0.0000       3.540894        96.3526 
 344   0.0000       3.550092        96.6029 
 345   0.0000       3.553513        96.6960 
 346   0.0000       3.573867        97.2499 
 347   0.0000       3.588149        97.6385 
 348   0.0000       3.606387        98.1348 
[...]
     34       0.000045  -0.000231   0.000943  -0.026136   0.072801  -0.000008
     35       0.000018  -0.000018   0.000247  -0.004597   0.014576   0.000016
     36       0.000009  -0.000016  -0.000342  -0.000002   0.002255  -0.000007
     37      -0.000007   0.000023  -0.000594   0.000121  -0.001957  -0.000012
     38      -0.000008  -0.000011  -0.000125   0.000013   0.000188   0.000006
     39       0.000010   0.000004   0.000128  -0.000167  -0.000329   0.000021
     40       0.000008   0.000004   0.000047   0.000003   0.000144   0.000007
     41       0.000007  -0.000003   0.000035  -0.000031  -0.000043   0.000025
     42      -0.000100  -0.000025   0.001081   0.000012   0.000493  -0.000285
     43      -0.000104  -0.000086  -0.008486   0.000077   0.001440  -0.000374
     44      -0.000017   0.000010  -0.000170  -0.000000   0.000229  -0.000107
     45      -0.001225  -0.002509  -0.407814   0.016021   0.011558  -0.000086
     46      -0.001792  -0.004506  -0.889565   0.035900   0.025874  -0.000144
     47      -0.000723  -0.001027  -0.179142   0.007284   0.005191  -0.000115
     48      -0.002252  -0.030563  -0.000509   0.004119   0.000955  -0.001083
     49       0.001217   0.087908  -0.001328  -0.004837  -0.000431   0.002333
     50       0.000324  -0.063631   0.000021   0.004621   0.000784  -0.000719
     51       0.034443   0.023177  -0.004067   0.000977   0.001112  -0.001693
     52       0.152097   0.112779  -0.007303  -0.000924   0.000956  -0.001579
     53       0.096992   0.073196  -0.005370   0.000165   0.000896   0.000349
     54       0.185579  -0.171923   0.000433   0.001574  -0.000062   0.006983
     55      -0.577882   0.529453  -0.001798  -0.005397   0.000115  -0.008631
     56       0.398150  -0.383052   0.001498   0.003815  -0.000153   0.006371
     57       0.086268   0.094076  -0.000333  -0.000405   0.000036   0.006003
     58       0.559954   0.593129  -0.003007  -0.005903  -0.000800   0.010958
     59       0.336222   0.375461  -0.002011  -0.004486  -0.000717   0.006591
     60       0.000359   0.006659   0.028336   0.540049   0.199279   0.000022
     61      -0.000240  -0.008573  -0.038691  -0.761538  -0.276532  -0.000101
     62       0.000037   0.000240   0.001010   0.018400   0.007267  -0.000003
     63      -0.000245   0.001348  -0.005487   0.142482  -0.392300   0.000203
     64      -0.000517   0.002893  -0.011790   0.308393  -0.833576   0.000264
     65      -0.000056   0.000646  -0.002262   0.059572  -0.162171   0.000093
     66      -0.000000  -0.000001   0.000005   0.000007  -0.000007  -0.000001
     67       0.000000   0.000000   0.000005  -0.000006   0.000002   0.000001
     68      -0.000002   0.000002  -0.000002   0.000000  -0.000001   0.000008
                 66         67         68    
      0       0.000003   0.000005   0.027674
      1       0.000002   0.000009   0.054714
      2      -0.000003   0.000000   0.010867
      3       0.000006   0.000007   0.000446
      4      -0.000004   0.000004   0.001855
      5      -0.000002   0.000002   0.000266
      6       0.000007  -0.000008   0.000789
      7       0.000017  -0.000009  -0.001506
      8      -0.000008  -0.000002   0.000007
      9      -0.000030  -0.000016  -0.000180
     10       0.000021   0.000044   0.000804
     11       0.000012   0.000000   0.000063
     12      -0.000176  -0.000083   0.000039
     13       0.000013   0.000559  -0.000029
     14       0.000416  -0.000241  -0.000051
     15      -0.000598   0.000383  -0.000025
     16      -0.000809  -0.002659  -0.000010
     17      -0.000869   0.000311   0.000064
     18       0.014454   0.002641   0.000039
     19      -0.022401  -0.076962   0.000003
     20      -0.075974   0.023225  -0.000021
     21      -0.397366   0.101813  -0.000033
     22      -0.007245  -0.017321   0.000004
     23       0.658333  -0.165304   0.000300
     24       0.077093  -0.254160  -0.000086
     25      -0.187502   0.610316   0.000141
     26       0.113308  -0.444373  -0.000073
     27       0.124074   0.116649  -0.000098
     28       0.505278   0.472446  -0.000318
     29       0.277860   0.288559  -0.000148
     30       0.000032   0.000017  -0.000150
     31      -0.000014   0.000007  -0.000215
     32      -0.000001   0.000006  -0.000060
     33      -0.000003  -0.000010   0.000017
     34       0.000010  -0.000000   0.000210
     35       0.000006   0.000000   0.000017
     36      -0.000003   0.000002  -0.000012
     37       0.000001  -0.000002  -0.001127
     38      -0.000000   0.000002  -0.000133
     39       0.000001  -0.000004  -0.000097
     40       0.000000   0.000004  -0.000082
     41      -0.000002   0.000005  -0.000026
     42      -0.000012  -0.000052  -0.451695
     43      -0.000010  -0.000100  -0.872571
     44      -0.000013  -0.000022  -0.175099
     45      -0.000034   0.000003   0.000896
     46      -0.000063  -0.000020   0.006468
     47      -0.000009  -0.000009   0.000788
     48      -0.000636   0.001642   0.000365
     49       0.000719  -0.002926  -0.000061
     50      -0.000324   0.000933   0.000219
     51      -0.001886  -0.001527   0.000136
     52      -0.001254  -0.001898  -0.000064
     53       0.000439   0.000213   0.000047
     54       0.002237  -0.009377  -0.000024
     55      -0.003321   0.018003   0.000047
     56       0.003139  -0.012431  -0.000021
     57       0.004693   0.004744   0.000022
     58       0.013575   0.015019  -0.000073
     59       0.008744   0.008378  -0.000097
     60      -0.000056   0.000021   0.000229
     61       0.000046  -0.000076  -0.000262
     62       0.000002  -0.000004   0.000011
     63       0.000019   0.000002  -0.000577
     64      -0.000016   0.000006  -0.000973
     65       0.000031   0.000015  -0.000200
     66       0.000001   0.000001   0.000025
     67       0.000002   0.000005   0.000011
     68      -0.000006   0.000005   0.000007


-----------
IR SPECTRUM
-----------

 Mode   freq       eps      Int      T**2         TX        TY        TZ
       cm**-1   L/(mol*cm) km/mol    a.u.
----------------------------------------------------------------------------
  6:     27.77   0.003775   19.08  0.042417  (-0.010203  0.143916 -0.146972)
  7:     51.19   0.002840   14.35  0.017312  ( 0.018873  0.062009  0.114504)
  8:     81.01   0.001404    7.10  0.005408  ( 0.057676  0.032397 -0.032128)
  9:     95.20   0.002034   10.28  0.006668  (-0.044401 -0.062927 -0.027151)
 10:    113.03   0.001241    6.27  0.003427  (-0.022037  0.054040  0.004546)
 11:    137.05   0.001055    5.33  0.002401  (-0.015351  0.001838 -0.046498)
 12:    216.73   0.000465    2.35  0.000669  ( 0.005200 -0.024115  0.007774)
 13:    236.80   0.000891    4.50  0.001174  (-0.013338  0.016522 -0.026889)
 14:    243.19   0.000454    2.29  0.000583  (-0.020393 -0.003201 -0.012511)
 15:    300.91   0.001184    5.99  0.001228  (-0.025314 -0.018210  0.015995)
 16:    314.83   0.003237   16.36  0.003209  ( 0.044703 -0.006290 -0.034220)
 17:    330.19   0.001818    9.19  0.001719  ( 0.018380 -0.004296  0.036909)
 18:    417.00   0.020955  105.90  0.015682  ( 0.041692  0.018199 -0.116673)
 19:    426.77   0.007404   37.42  0.005414  ( 0.018593  0.000475  0.071189)
 20:    457.47   0.006481   32.75  0.004421  (-0.010244 -0.006415  0.065382)
 21:    487.37   0.000185    0.93  0.000118  (-0.005040  0.008285  0.004936)
 22:    536.39   0.001296    6.55  0.000754  (-0.014264  0.023404  0.001626)
 23:    606.60   0.005638   28.49  0.002900  ( 0.000279 -0.049533 -0.021137)
 24:    615.87   0.002541   12.84  0.001287  (-0.020062 -0.013247  0.026636)
 25:    722.38   0.002086   10.54  0.000901  (-0.016151  0.020646 -0.014634)
 26:    744.28   0.002183   11.03  0.000915  (-0.015400  0.016179 -0.020410)
 27:    766.82   0.003132   15.83  0.001275  ( 0.003988 -0.035166  0.004708)
 28:    800.91   0.007388   37.34  0.002879  ( 0.028799  0.010611 -0.044009)
 29:    810.41   0.005684   28.72  0.002189  ( 0.001851  0.005440  0.046429)
 30:    848.54   0.007504   37.92  0.002760  ( 0.010245  0.003561 -0.051401)
 31:    906.42   0.001902    9.61  0.000655  (-0.008086  0.017637  0.016680)
 32:    909.46   0.004570   23.09  0.001568  ( 0.012826  0.037430 -0.001573)
 33:    940.29   0.000093    0.47  0.000031  (-0.002941  0.000165  0.004703)
 34:    948.11   0.000354    1.79  0.000117  ( 0.009448  0.005227 -0.000286)
 35:    992.51   0.004634   23.42  0.001457  ( 0.037201  0.001088  0.008481)
 36:   1069.32   0.000779    3.94  0.000227  (-0.013268 -0.001653 -0.006967)
 37:   1108.99   0.035523  179.52  0.009996  (-0.054326  0.083775  0.005151)
 38:   1110.61   0.011483   58.03  0.003226  ( 0.040371  0.005146 -0.039625)
 39:   1133.88   0.006757   34.15  0.001860  ( 0.027973 -0.032760  0.001970)
 40:   1163.29   0.000124    0.63  0.000033  (-0.005247 -0.002331  0.000557)
 41:   1240.49   0.005255   26.55  0.001322  ( 0.008964  0.035022  0.003872)
 42:   1249.99   0.014310   72.32  0.003573  (-0.052393  0.028295 -0.005191)
 43:   1287.81   0.002013   10.17  0.000488  (-0.006890 -0.020980 -0.000319)
 44:   1296.72   0.003938   19.90  0.000948  (-0.021019 -0.020582 -0.009071)
 45:   1320.27   0.001452    7.34  0.000343  (-0.005515 -0.017616  0.001577)
 46:   1347.04   0.002419   12.22  0.000560  ( 0.021930 -0.008333  0.003169)
 47:   1368.89   0.001903    9.62  0.000434  ( 0.010299  0.018047 -0.001464)
 48:   1371.72   0.010166   51.38  0.002313  (-0.045204  0.011265  0.011934)
 49:   1422.86   0.000587    2.96  0.000129  (-0.009016  0.006724  0.001458)
 50:   1444.35   0.026232  132.57  0.005668  ( 0.008938 -0.074347 -0.007765)
 51:   1445.27   0.004829   24.40  0.001043  ( 0.018294  0.000544 -0.026603)
 52:   1465.58   0.009461   47.81  0.002015  (-0.042671 -0.009774 -0.009908)
 53:   1479.01   0.030544  154.36  0.006445  (-0.078666 -0.003449 -0.015634)
 54:   1500.10   0.012034   60.81  0.002503  ( 0.049238  0.001520  0.008757)
 55:   1579.84   0.062919  317.96  0.012428  ( 0.098634 -0.050438  0.012474)
 56:   1588.01   0.015099   76.31  0.002967  (-0.007104  0.052594  0.012272)
 57:   1596.02   0.012333   62.33  0.002411  ( 0.010601  0.012699 -0.046236)
 58:   2972.84   0.001682    8.50  0.000177  ( 0.009036 -0.000704  0.009719)
 59:   3026.41   0.001306    6.60  0.000135  (-0.006782 -0.009259 -0.001729)
 60:   3030.90   0.001257    6.35  0.000129  (-0.001906 -0.002111 -0.011014)
 61:   3088.92   0.000571    2.89  0.000058  (-0.001477 -0.007444 -0.000320)
 62:   3105.58   0.000038    0.19  0.000004  ( 0.000767  0.001738  0.000482)
 63:   3113.63   0.000749    3.79  0.000075  (-0.007411  0.004437 -0.000698)
 64:   3133.90   0.000155    0.79  0.000015  (-0.001969  0.003405 -0.000090)
 65:   3341.76   0.017357   87.71  0.001621  ( 0.040150  0.002809  0.000980)
 66:   3411.47   0.028648  144.78  0.002621  (-0.009889  0.014547  0.048075)
 67:   3415.80   0.027073  136.82  0.002473  ( 0.000110  0.047726 -0.013986)
 68:   3620.47   0.058701  296.65  0.005060  (-0.013913 -0.069003 -0.010230)

* The epsilon (eps) is given for a Dirac delta lineshape.
** The dipole moment derivative (T) already includes vibrational overlap.

The first frequency considered to be a vibration is 6
The total number of vibrations considered is 63


--------------------------
THERMOCHEMISTRY AT 298.15K
--------------------------

Temperature         ... 298.15 K
Pressure            ... 1.00 atm
Total Mass          ... 216.73 AMU

Throughout the following assumptions are being made:
  (1) The electronic state is orbitally nondegenerate
      but the spin degeneracy is treated
  (2) There are no thermally accessible electronically excited states
  (3) Hindered rotations indicated by low frequency modes are not
      treated as such but are treated as vibrations and this may
      cause some error
  (4) All equations used are the standard statistical mechanics
      equations for an ideal gas
  (5) All vibrations are strictly harmonic

freq.      27.77  E(vib)   ...       0.55 
freq.      51.19  E(vib)   ...       0.52 
freq.      81.01  E(vib)   ...       0.48 
freq.      95.20  E(vib)   ...       0.47 
freq.     113.03  E(vib)   ...       0.45 
freq.     137.05  E(vib)   ...       0.42 
freq.     216.73  E(vib)   ...       0.34 
freq.     236.80  E(vib)   ...       0.32 
freq.     243.19  E(vib)   ...       0.31 
freq.     300.91  E(vib)   ...       0.26 
freq.     314.83  E(vib)   ...       0.25 
freq.     330.19  E(vib)   ...       0.24 
freq.     417.00  E(vib)   ...       0.18 
freq.     426.77  E(vib)   ...       0.18 
freq.     457.47  E(vib)   ...       0.16 
freq.     487.37  E(vib)   ...       0.15 
freq.     536.39  E(vib)   ...       0.12 
freq.     606.60  E(vib)   ...       0.10 
freq.     615.87  E(vib)   ...       0.10 
freq.     722.38  E(vib)   ...       0.07 
freq.     744.28  E(vib)   ...       0.06 
freq.     766.82  E(vib)   ...       0.06 
freq.     800.91  E(vib)   ...       0.05 
freq.     810.41  E(vib)   ...       0.05 
freq.     848.54  E(vib)   ...       0.04 
freq.     906.42  E(vib)   ...       0.03 
freq.     909.46  E(vib)   ...       0.03 
freq.     940.29  E(vib)   ...       0.03 
freq.     948.11  E(vib)   ...       0.03 
freq.     992.51  E(vib)   ...       0.02 
freq.    1069.32  E(vib)   ...       0.02 
freq.    1108.99  E(vib)   ...       0.02 
freq.    1110.61  E(vib)   ...       0.02 
freq.    1133.88  E(vib)   ...       0.01 
freq.    1163.29  E(vib)   ...       0.01 
freq.    1240.49  E(vib)   ...       0.01 
freq.    1249.99  E(vib)   ...       0.01 
freq.    1287.81  E(vib)   ...       0.01 
freq.    1296.72  E(vib)   ...       0.01 
freq.    1320.27  E(vib)   ...       0.01 
freq.    1347.04  E(vib)   ...       0.01 
freq.    1368.89  E(vib)   ...       0.01 
freq.    1371.72  E(vib)   ...       0.01 
freq.    1422.86  E(vib)   ...       0.00 
freq.    1444.35  E(vib)   ...       0.00 
freq.    1445.27  E(vib)   ...       0.00 
freq.    1465.58  E(vib)   ...       0.00 
freq.    1479.01  E(vib)   ...       0.00 
freq.    1500.10  E(vib)   ...       0.00 
freq.    1579.84  E(vib)   ...       0.00 
freq.    1588.01  E(vib)   ...       0.00 
freq.    1596.02  E(vib)   ...       0.00 
freq.    2972.84  E(vib)   ...       0.00 
freq.    3026.41  E(vib)   ...       0.00 
freq.    3030.90  E(vib)   ...       0.00 
freq.    3088.92  E(vib)   ...       0.00 
freq.    3105.58  E(vib)   ...       0.00 
freq.    3113.63  E(vib)   ...       0.00 
freq.    3133.90  E(vib)   ...       0.00 
freq.    3341.76  E(vib)   ...       0.00 
freq.    3411.47  E(vib)   ...       0.00 
freq.    3415.80  E(vib)   ...       0.00 
freq.    3620.47  E(vib)   ...       0.00 

------------
INNER ENERGY
------------

The inner energy is: U= E(el) + E(ZPE) + E(vib) + E(rot) + E(trans)
    E(el)   - is the total energy from the electronic structure calculation
              = E(kin-el) + E(nuc-el) + E(el-el) + E(nuc-nuc)
    E(ZPE)  - the the zero temperature vibrational energy from the frequency calculation
    E(vib)  - the the finite temperature correction to E(ZPE) due to population
              of excited vibrational states
    E(rot)  - is the rotational thermal energy
    E(trans)- is the translational thermal energy

Summary of contributions to the inner energy U:
Electronic energy                ...  -2156.27260400 Eh
Zero point energy                ...      0.18211048 Eh     114.28 kcal/mol
Thermal vibrational correction   ...      0.00991446 Eh       6.22 kcal/mol
Thermal rotational correction    ...      0.00141627 Eh       0.89 kcal/mol
Thermal translational correction ...      0.00141627 Eh       0.89 kcal/mol
-----------------------------------------------------------------------
Total thermal energy                  -2156.07774652 Eh


Summary of corrections to the electronic energy:
(perhaps to be used in another calculation)
Total thermal correction                  0.01274700 Eh       8.00 kcal/mol
Non-thermal (ZPE) correction              0.18211048 Eh     114.28 kcal/mol
-----------------------------------------------------------------------
Total correction                          0.19485748 Eh     122.27 kcal/mol


--------
ENTHALPY
--------

The enthalpy is H = U + kB*T
                kB is Boltzmann's constant
Total free energy                 ...  -2156.07774652 Eh 
Thermal Enthalpy correction       ...      0.00094421 Eh       0.59 kcal/mol
-----------------------------------------------------------------------
Total Enthalpy                    ...  -2156.07680231 Eh


Note: Only C1 symmetry has been detected, increase convergence thresholds 
      if your molecule has a higher symmetry. Symmetry factor of 1.0 is   
      used for the rotational entropy correction. 
 

Note: Rotational entropy computed according to Herzberg 
Infrared and Raman Spectra, Chapter V,1, Van Nostrand Reinhold, 1945 
Point Group:  C1, Symmetry Number:   1  
Rotational constants in cm-1:     0.078860     0.008951     0.008294 

Vibrational entropy computed according to the QRRHO of S. Grimme
Chem.Eur.J. 2012 18 9955


-------
ENTROPY
-------

The entropy contributions are T*S = T*(S(el)+S(vib)+S(rot)+S(trans))
     S(el)   - electronic entropy
     S(vib)  - vibrational entropy
     S(rot)  - rotational entropy
     S(trans)- translational entropy
The entropies will be listed as multiplied by the temperature to get
units of energy

Electronic entropy                ...      0.00065446 Eh      0.41 kcal/mol
Vibrational entropy               ...      0.01754453 Eh     11.01 kcal/mol
Rotational entropy                ...      0.01519867 Eh      9.54 kcal/mol
Translational entropy             ...      0.01996671 Eh     12.53 kcal/mol
-----------------------------------------------------------------------
Final entropy term                ...      0.05336437 Eh     33.49 kcal/mol

In case the symmetry of your molecule has not been determined correctly
or in case you have a reason to use a different symmetry number we print 
out the resulting rotational entropy values for sn=1,12 :
 --------------------------------------------------------
|  sn= 1 | S(rot)=       0.01519867 Eh      9.54 kcal/mol|
|  sn= 2 | S(rot)=       0.01454422 Eh      9.13 kcal/mol|
|  sn= 3 | S(rot)=       0.01416139 Eh      8.89 kcal/mol|
|  sn= 4 | S(rot)=       0.01388976 Eh      8.72 kcal/mol|
|  sn= 5 | S(rot)=       0.01367907 Eh      8.58 kcal/mol|
|  sn= 6 | S(rot)=       0.01350693 Eh      8.48 kcal/mol|
|  sn= 7 | S(rot)=       0.01336138 Eh      8.38 kcal/mol|
|  sn= 8 | S(rot)=       0.01323530 Eh      8.31 kcal/mol|
|  sn= 9 | S(rot)=       0.01312410 Eh      8.24 kcal/mol|
|  sn=10 | S(rot)=       0.01302462 Eh      8.17 kcal/mol|
|  sn=11 | S(rot)=       0.01293463 Eh      8.12 kcal/mol|
|  sn=12 | S(rot)=       0.01285247 Eh      8.07 kcal/mol|
 --------------------------------------------------------


-------------------
GIBBS FREE ENERGY
-------------------

The Gibbs free energy is G = H - T*S

Total enthalpy                    ...  -2156.07680231 Eh 
Total entropy correction          ...     -0.05336437 Eh    -33.49 kcal/mol
-----------------------------------------------------------------------
Final Gibbs free energy         ...  -2156.13016667 Eh

For completeness - the Gibbs free energy minus the electronic energy
G-E(el)                           ...      0.14243732 Eh     89.38 kcal/mol



Timings for individual modules:

Sum of individual times         ...     1829.410 sec (=  30.490 min)
GTO integral calculation        ...        3.978 sec (=   0.066 min)   0.2 %
SCF iterations                  ...       86.384 sec (=   1.440 min)   4.7 %
SCF Gradient evaluation         ...       16.088 sec (=   0.268 min)   0.9 %
Geometry relaxation             ...        0.087 sec (=   0.001 min)   0.0 %
Numerical frequency calculation ...     1722.874 sec (=  28.715 min)  94.2 %



                             ****ORCA TERMINATED NORMALLY****
TOTAL RUN TIME: 0 days 3 hours 16 minutes 51 seconds 639 msec
