
                                 *****************
                                 * O   R   C   A *
                                 *****************

                                            #,                                       
                                            ###                                      
                                            ####                                     
                                            #####                                    
                                            ######                                   
                                           ########,                                 
                                     ,,################,,,,,                         
                               ,,#################################,,                 
                          ,,##########################################,,             
                       ,#########################################, ''#####,          
                    ,#############################################,,   '####,        
                  ,##################################################,,,,####,       
                ,###########''''           ''''###############################       
              ,#####''   ,,,,##########,,,,          '''####'''          '####       
            ,##' ,,,,###########################,,,                        '##       
           ' ,,###''''                  '''############,,,                           
         ,,##''                                '''############,,,,        ,,,,,,###''
      ,#''                                            '''#######################'''  
     '                                                          ''''####''''         
             ,#######,   #######,   ,#######,      ##                                
            ,#'     '#,  ##    ##  ,#'     '#,    #''#        ######   ,####,        
            ##       ##  ##   ,#'  ##            #'  '#       #        #'  '#        
            ##       ##  #######   ##           ,######,      #####,   #    #        
            '#,     ,#'  ##    ##  '#,     ,#' ,#      #,         ##   #,  ,#        
             '#######'   ##     ##  '#######'  #'      '#     #####' # '####'        



                  #######################################################
                  #                        -***-                        #
                  #          Department of theory and spectroscopy      #
                  #    Directorship and core code : Frank Neese         #
                  #        Max Planck Institute fuer Kohlenforschung    #
                  #                Kaiser Wilhelm Platz 1               #
                  #                 D-45470 Muelheim/Ruhr               #
                  #                      Germany                        #
                  #                                                     #
                  #                  All rights reserved                #
                  #                        -***-                        #
                  #######################################################


                         Program Version 5.0.2 -  RELEASE  -


 With contributions from (in alphabetic order):
   Daniel Aravena         : Magnetic Suceptibility
   Michael Atanasov       : Ab Initio Ligand Field Theory (pilot matlab implementation)
   Alexander A. Auer      : GIAO ZORA, VPT2 properties, NMR spectrum
   Ute Becker             : Parallelization
   Giovanni Bistoni       : ED, misc. LED, open-shell LED, HFLD
   Martin Brehm           : Molecular dynamics
   Dmytro Bykov           : SCF Hessian
   Vijay G. Chilkuri      : MRCI spin determinant printing, contributions to CSF-ICE
   Dipayan Datta          : RHF DLPNO-CCSD density
   Achintya Kumar Dutta   : EOM-CC, STEOM-CC
   Dmitry Ganyushin       : Spin-Orbit,Spin-Spin,Magnetic field MRCI
   Miquel Garcia          : C-PCM and meta-GGA Hessian, CC/C-PCM, Gaussian charge scheme
   Yang Guo               : DLPNO-NEVPT2, F12-NEVPT2, CIM, IAO-localization
   Andreas Hansen         : Spin unrestricted coupled pair/coupled cluster methods
   Benjamin Helmich-Paris : MC-RPA, TRAH-SCF, COSX integrals
   Lee Huntington         : MR-EOM, pCC
   Robert Izsak           : Overlap fitted RIJCOSX, COSX-SCS-MP3, EOM
   Marcus Kettner         : VPT2
   Christian Kollmar      : KDIIS, OOCD, Brueckner-CCSD(T), CCSD density, CASPT2, CASPT2-K
   Simone Kossmann        : Meta GGA functionals, TD-DFT gradient, OOMP2, MP2 Hessian
   Martin Krupicka        : Initial AUTO-CI
   Lucas Lang             : DCDCAS
   Marvin Lechner         : AUTO-CI (C++ implementation), FIC-MRCC
   Dagmar Lenk            : GEPOL surface, SMD
   Dimitrios Liakos       : Extrapolation schemes; Compound Job, initial MDCI parallelization
   Dimitrios Manganas     : Further ROCIS development; embedding schemes
   Dimitrios Pantazis     : SARC Basis sets
   Anastasios Papadopoulos: AUTO-CI, single reference methods and gradients
   Taras Petrenko         : DFT Hessian,TD-DFT gradient, ASA, ECA, R-Raman, ABS, FL, XAS/XES, NRVS
   Peter Pinski           : DLPNO-MP2, DLPNO-MP2 Gradient
   Christoph Reimann      : Effective Core Potentials
   Marius Retegan         : Local ZFS, SOC
   Christoph Riplinger    : Optimizer, TS searches, QM/MM, DLPNO-CCSD(T), (RO)-DLPNO pert. Triples
   Tobias Risthaus        : Range-separated hybrids, TD-DFT gradient, RPA, STAB
   Michael Roemelt        : Original ROCIS implementation
   Masaaki Saitow         : Open-shell DLPNO-CCSD energy and density
   Barbara Sandhoefer     : DKH picture change effects
   Avijit Sen             : IP-ROCIS
   Kantharuban Sivalingam : CASSCF convergence, NEVPT2, FIC-MRCI
   Bernardo de Souza      : ESD, SOC TD-DFT
   Georgi Stoychev        : AutoAux, RI-MP2 NMR, DLPNO-MP2 response
   Willem Van den Heuvel  : Paramagnetic NMR
   Boris Wezisla          : Elementary symmetry handling
   Frank Wennmohs         : Technical directorship


 We gratefully acknowledge several colleagues who have allowed us to
 interface, adapt or use parts of their codes:
   Stefan Grimme, W. Hujo, H. Kruse, P. Pracht,  : VdW corrections, initial TS optimization,
                  C. Bannwarth, S. Ehlert          DFT functionals, gCP, sTDA/sTD-DF
   Ed Valeev, F. Pavosevic, A. Kumar             : LibInt (2-el integral package), F12 methods
   Garnet Chan, S. Sharma, J. Yang, R. Olivares  : DMRG
   Ulf Ekstrom                                   : XCFun DFT Library
   Mihaly Kallay                                 : mrcc  (arbitrary order and MRCC methods)
   Jiri Pittner, Ondrej Demel                    : Mk-CCSD
   Frank Weinhold                                : gennbo (NPA and NBO analysis)
   Christopher J. Cramer and Donald G. Truhlar   : smd solvation model
   Lars Goerigk                                  : TD-DFT with DH, B97 family of functionals
   V. Asgeirsson, H. Jonsson                     : NEB implementation
   FAccTs GmbH                                   : IRC, NEB, NEB-TS, DLPNO-Multilevel, CI-OPT
                                                   MM, QMMM, 2- and 3-layer-ONIOM, Crystal-QMMM,
                                                   LR-CPCM, SF, NACMEs, symmetry and pop. for TD-DFT,
                                                   nearIR, NL-DFT gradient (VV10), updates on ESD,
                                                   ML-optimized integration grids
   S Lehtola, MJT Oliveira, MAL Marques          : LibXC Library
   Liviu Ungur et al                             : ANISO software


 Your calculation uses the libint2 library for the computation of 2-el integrals
 For citations please refer to: http://libint.valeyev.net

 Your ORCA version has been built with support for libXC version: 5.1.0
 For citations please refer to: https://tddft.org/programs/libxc/

 This ORCA versions uses:
   CBLAS   interface :  Fast vector & matrix operations
   LAPACKE interface :  Fast linear algebra routines
   SCALAPACK package :  Parallel linear algebra routines
   Shared memory     :  Shared parallel matrices
   BLAS/LAPACK       :  OpenBLAS 0.3.15  USE64BITINT DYNAMIC_ARCH NO_AFFINITY Haswell SINGLE_THREADED
        Core in use  :  Haswell
   Copyright (c) 2011-2014, The OpenBLAS Project


Your calculation utilizes the atom-pairwise dispersion correction
with the Becke-Johnson damping scheme (D3BJ)
Cite in your paper:
S.Grimme, S.Ehrlich, L.Goerigk, J Comput Chem, (2011), 32, 1456–1465 
S.Grimme, J.Antony, S.Ehrlich and H.Krieg, J.Chem.Phys., 132, (2010), 154104 
   

================================================================================

----- Orbital basis set information -----
Your calculation utilizes the basis: def2-TZVP
   F. Weigend and R. Ahlrichs, Phys. Chem. Chem. Phys. 7, 3297 (2005).

----- AuxJ basis set information -----
Your calculation utilizes the auxiliary basis: def2/J
   F. Weigend, Phys. Chem. Chem. Phys. 8, 1057 (2006).

================================================================================
                                        WARNINGS
                       Please study these warnings very carefully!
================================================================================


WARNING: The environment variable RSH_COMMAND is not set!
  ===> : All Displacements for the Numerical Hessian or Gradient calculation
         will be started on localhost

INFO   : the flag for use of the SHARK integral package has been found!

Your calculation utilizes the atom-pairwise dispersion correction
with the Becke-Johnson damping scheme (D3BJ)
Cite in your paper:
S.Grimme, S.Ehrlich, L.Goerigk, J Comput Chem, (2011), 32, 1456–1465 
S.Grimme, J.Antony, S.Ehrlich and H.Krieg, J.Chem.Phys., 132, (2010), 154104 
   

================================================================================

----- Orbital basis set information -----
Your calculation utilizes the basis: def2-TZVP
   F. Weigend and R. Ahlrichs, Phys. Chem. Chem. Phys. 7, 3297 (2005).

----- AuxJ basis set information -----
Your calculation utilizes the auxiliary basis: def2/J
   F. Weigend, Phys. Chem. Chem. Phys. 8, 1057 (2006).

================================================================================
                                        WARNINGS
                       Please study these warnings very carefully!
================================================================================


WARNING: MOInp is set but Guess=PModel. MOInp will be ignored!
         To read the initial guess from a file you must also specify
         'MORead' in the simple input or 'Guess MORead' in the %scf block


WARNING: The environment variable RSH_COMMAND is not set!
  ===> : All Displacements for the Numerical Hessian or Gradient calculation
         will be started on localhost

INFO   : the flag for use of the SHARK integral package has been found!

Your calculation utilizes the atom-pairwise dispersion correction
with the Becke-Johnson damping scheme (D3BJ)
Cite in your paper:
S.Grimme, S.Ehrlich, L.Goerigk, J Comput Chem, (2011), 32, 1456–1465 
S.Grimme, J.Antony, S.Ehrlich and H.Krieg, J.Chem.Phys., 132, (2010), 154104 
   

================================================================================

----- Orbital basis set information -----
Your calculation utilizes the basis: def2-TZVP
   F. Weigend and R. Ahlrichs, Phys. Chem. Chem. Phys. 7, 3297 (2005).

----- AuxJ basis set information -----
Your calculation utilizes the auxiliary basis: def2/J
   F. Weigend, Phys. Chem. Chem. Phys. 8, 1057 (2006).

================================================================================
                                        WARNINGS
                       Please study these warnings very carefully!
================================================================================


WARNING: MOInp is set but Guess=PModel. MOInp will be ignored!
         To read the initial guess from a file you must also specify
         'MORead' in the simple input or 'Guess MORead' in the %scf block


WARNING: The environment variable RSH_COMMAND is not set!
  ===> : All Displacements for the Numerical Hessian or Gradient calculation
         will be started on localhost

INFO   : the flag for use of the SHARK integral package has been found!

Your calculation utilizes the atom-pairwise dispersion correction
with the Becke-Johnson damping scheme (D3BJ)
Cite in your paper:
S.Grimme, S.Ehrlich, L.Goerigk, J Comput Chem, (2011), 32, 1456–1465 
S.Grimme, J.Antony, S.Ehrlich and H.Krieg, J.Chem.Phys., 132, (2010), 154104 
   

================================================================================

----- Orbital basis set information -----
Your calculation utilizes the basis: def2-TZVP
   F. Weigend and R. Ahlrichs, Phys. Chem. Chem. Phys. 7, 3297 (2005).

----- AuxJ basis set information -----
Your calculation utilizes the auxiliary basis: def2/J
   F. Weigend, Phys. Chem. Chem. Phys. 8, 1057 (2006).

================================================================================
                                        WARNINGS
                       Please study these warnings very carefully!
================================================================================


WARNING: MOInp is set but Guess=PModel. MOInp will be ignored!
         To read the initial guess from a file you must also specify
         'MORead' in the simple input or 'Guess MORead' in the %scf block


WARNING: The environment variable RSH_COMMAND is not set!
  ===> : All Displacements for the Numerical Hessian or Gradient calculation
         will be started on localhost

INFO   : the flag for use of the SHARK integral package has been found!

Your calculation utilizes the atom-pairwise dispersion correction
with the Becke-Johnson damping scheme (D3BJ)
Cite in your paper:
S.Grimme, S.Ehrlich, L.Goerigk, J Comput Chem, (2011), 32, 1456–1465 
S.Grimme, J.Antony, S.Ehrlich and H.Krieg, J.Chem.Phys., 132, (2010), 154104 
   

================================================================================

----- Orbital basis set information -----
Your calculation utilizes the basis: def2-TZVP
   F. Weigend and R. Ahlrichs, Phys. Chem. Chem. Phys. 7, 3297 (2005).

----- AuxJ basis set information -----
Your calculation utilizes the auxiliary basis: def2/J
   F. Weigend, Phys. Chem. Chem. Phys. 8, 1057 (2006).

================================================================================
                                        WARNINGS
                       Please study these warnings very carefully!
================================================================================


WARNING: MOInp is set but Guess=PModel. MOInp will be ignored!
         To read the initial guess from a file you must also specify
         'MORead' in the simple input or 'Guess MORead' in the %scf block


WARNING: The environment variable RSH_COMMAND is not set!
  ===> : All Displacements for the Numerical Hessian or Gradient calculation
         will be started on localhost

INFO   : the flag for use of the SHARK integral package has been found!

================================================================================
                                       INPUT FILE
================================================================================
NAME = ex.inp
|  1> ! PBE D3 def2-TZVP opt numfreq PModel NOAUTOSTART cpcm(water)
|  2> %pal nprocs=16 end
|  3> %geom maxiter=150 end
|  4> %base "neutral"
|  5> *xyz 0 1
|  6>   C   -0.23364539440427     -0.98735152628088     -0.84773282505527
|  7>   C   -1.02767110642919      1.68942707754336     -0.62806803049625
|  8>   C   -1.60746445332909     -0.64537133626969     -0.89805403327819
|  9>   C   0.75237211097336      0.01632749144574     -0.66252812244628
| 10>   C   0.32264176234798      1.34840527028711     -0.54770055043061
| 11>   C   -2.00157891592881      0.69530106822817     -0.78844491708071
| 12>   O   -3.32565351266257      1.02805157571314     -0.81012388548239
| 13>   O   -2.60081034458877     -1.59237317610088     -1.02518659781967
| 14>   C   2.21100989484716     -0.34745874258546     -0.58413277700559
| 15>   C   2.84429756043200     -0.10162678989019      0.80338360407753
| 16>   N   2.27870365644594     -0.83354873286293      1.93737556833646
| 17>   H   0.06493040702076     -2.00327315009423     -1.13164697844048
| 18>   H   -1.34730625596179      2.72927348377886     -0.53898672168569
| 19>   H   1.06251390586273      2.13865726826407     -0.40421845828412
| 20>   H   -3.82427947538313      0.18465267342447     -0.86727723432820
| 21>   H   -2.44832128263309     -2.26170256206642     -0.29898469782720
| 22>   H   2.78477543669918      0.24326693052970     -1.31801610646968
| 23>   H   2.34018332626173     -1.40827638899108     -0.85086210988408
| 24>   H   3.91385481971695     -0.35758887016586      0.73122516569824
| 25>   H   2.79188255563150      0.97088112170735      1.04377169578348
| 26>   H   2.15189677940815     -1.83089365567171      1.74239756487284
| 27>   H   1.39022804593794     -0.44020821588623      2.26440628181045
| 28>   Cu  -0.37058157204127     -1.56276498478490      1.16984913122932
| 29>   Cu  -1.93477796141838     -2.97585744425151      2.10246930510010
| 30> *
| 31> 
| 32> $new_job
| 33> 
| 34> ! PBE D3 def2-TZVP opt numfreq PModel NOAUTOSTART cpcm(water)
| 35> %pal nprocs=16 end
| 36> %geom maxiter=150 end
| 37> %base "protonated"
| 38> *xyz 1 1
| 39>   C   -0.88416257855996     -1.68278740074542      0.01981041223918
| 40>   C   -0.32849300009850      0.95124170447599      0.83059819315456
| 41>   C   -1.93635792598135     -0.77751230862968      0.15374532378950
| 42>   C   0.43370589187214     -1.28912229278131      0.28847312233767
| 43>   C   0.73769462987678      0.01646263594628      0.68815392543955
| 44>   C   -1.66325504643015      0.55263058445612      0.57615888738157
| 45>   O   -3.21482217974102     -1.17752741052623     -0.07620261948603
| 46>   O   -2.76161584992584      1.33125502322169      0.80560050321137
| 47>   C   2.15686264312377      0.42403799156959      1.00454924174946
| 48>   C   2.76276211394759      1.48278342207174      0.08621288832306
| 49>   N   2.84620380289433      1.01790757308189     -1.33785737652931
| 50>   H   1.88822675687534      1.03022874442136     -1.80508257695447
| 51>   H   3.45005546954784      1.63977741014319     -1.89174909887800
| 52>   H   3.22900618188578      0.06533470990982     -1.41103562460073
| 53>   H   -1.11031123501203     -2.70312322838612     -0.29248872207083
| 54>   H   -0.14499656004835      1.94075243160862      1.25927205843605
| 55>   H   1.24122543255621     -2.01456140396591      0.17962999184162
| 56>   H   -3.81069476434219     -0.41751636248188      0.08432652139330
| 57>   H   -2.48927867098130      2.23171643669892      1.06679080470764
| 58>   H   2.79831319095347     -0.47035968944384      0.99567502049707
| 59>   H   2.20595406676136      0.84037816221870      2.02341079780934
| 60>   H   2.16671465049089      2.40471425388266      0.07472294756008
| 61>   H   3.78226726306253      1.72532565038454      0.40825470395076
| 62>   Cu  -0.44811082978192      1.13853923032209     -1.27364569863654
| 63>   Cu  0.19233000051549      1.51284175128813     -3.43552269150086
| 64> *
| 65> 
| 66> $new_job
| 67> 
| 68> ! PBE D3 def2-TZVP opt numfreq PModel NOAUTOSTART cpcm(water)
| 69> %pal nprocs=16 end
| 70> %geom maxiter=150 end
| 71> %base "deprotonated"
| 72> *xyz -1 1
| 73>   O   1.07693137461926     -3.17101816760735     -0.68580133064104
| 74>   O   2.94053581055090     -1.33253058403745     -0.67111136120413
| 75>   N   -2.87850396426089      1.38258441393047     -1.03876600781538
| 76>   C   -2.33519647369530     -0.02190864021129      1.01854038115330
| 77>   C   -0.91654740320482     -0.34150899515480      0.62062988486537
| 78>   C   -3.25563890658602      0.24164612093766     -0.19253609289305
| 79>   C   -0.57822605432950     -1.63528136546790      0.16906872043830
| 80>   C   0.08453795069104      0.63734867474251      0.62663036145473
| 81>   C   0.71343716706698     -1.91921599927202     -0.25152655682588
| 82>   C   1.39310816920703      0.35318628894309      0.20251328048443
| 83>   C   1.74282916100055     -0.93045498875656     -0.24706921581314
| 84>   H   -2.34730326363446      0.87012503508138      1.66689920505299
| 85>   H   -2.76485607203971     -0.85388605103417      1.60280717654608
| 86>   H   -4.28488275783106      0.40495700375837      0.16528649117666
| 87>   H   -3.27683737504813     -0.66023313286534     -0.82632303106789
| 88>   H   -1.33198631373302     -2.42783318158614      0.15145288545811
| 89>   H   -0.15736202172270      1.64495455103374      0.97501039192213
| 90>   H   2.16804109670366      1.12570222005714      0.21941569864751
| 91>   H   -1.90445777438536      1.25613072843521     -1.33436120860806
| 92>   H   -2.86747237244454      2.22969669094634     -0.46148973561632
| 93>   H   2.03818510247195     -3.05310218601977     -0.89441412813609
| 94>   Cu  6.53819217082332      0.82475741616526     -0.39692450935771
| 95>   Cu  4.52860495127083     -0.27244079775232     -0.56269109303099
| 96> *
| 97> 
| 98> $new_job
| 99> 
|100> ! PBE D3 def2-TZVP opt numfreq PModel NOAUTOSTART cpcm(water)
|101> %pal nprocs=16 end
|102> %geom maxiter=150 end
|103> %base "2x_deprotonated"
|104> *xyz -2 1
|105>   O   -1.68563516828733     -2.38808329051687      0.25957804752402
|106>   O   -3.24388947660113     -0.19390759982063     -0.33193038720620
|107>   N   3.08185828670686     -0.75615588995838     -1.22892942333943
|108>   C   2.30009333047954      0.46741579098789      0.86904147712968
|109>   C   0.82302678446089      0.30912619144841      0.59897304864293
|110>   C   3.15708374750629      0.46728369999397     -0.41461673401217
|111>   C   0.22558526485635     -0.96994004291786      0.57722330260574
|112>   C   0.01977966089033      1.41507013899769      0.29677189149050
|113>   C   -1.13476011820555     -1.18032839500135      0.26813248050428
|114>   C   -1.34214101344633      1.24602576919605     -0.01870159969783
|115>   C   -1.95632117735283     -0.02166487893373     -0.04524036442153
|116>   H   2.48957360061113      1.41405608693471      1.40471136385760
|117>   H   2.65701911374579     -0.34844465678219      1.52167631277656
|118>   H   4.21389847436717      0.63654145763836     -0.14987222284123
|119>   H   2.84625443246108      1.31583290257210     -1.04684303435049
|120>   H   0.83247475817601     -1.84981740265425      0.82098727453464
|121>   H   0.45307851296639      2.42019825625789      0.30864789756667
|122>   H   -1.96332262451219      2.12002338883087     -0.24383229098337
|123>   H   2.08952956032529     -0.96817007413991     -1.38453660307137
|124>   H   3.42604578163279     -1.54146774097460     -0.66667732036529
|125>   Cu  -3.66300257120509     -2.17591275329718     -0.21543915190417
|126>   Cu  -5.45201835525750     -3.63279822083500     -0.41441240214357
|127> *
|128> 
|129> $new_job
|130> 
|131> ! PBE D3 def2-TZVP opt numfreq PModel NOAUTOSTART cpcm(water)
|132> %pal nprocs=16 end
|133> %geom maxiter=150 end
|134> %base "zwitterione"
|135> *xyz 0 1
|136>   O   2.00076932120825     -2.87691483319933     -0.19588327019587
|137>   C   1.57849735655581     -1.57673623104270     -0.30381332186392
|138>   C   0.22641616856914     -1.35795535426198     -0.55956637949910
|139>   C   -0.30297034895940     -0.06295889482644     -0.69471832067789
|140>   C   -1.78238602948989      0.14228450069040     -0.91348130001138
|141>   C   -2.58313787338961      0.04719821030108      0.38474210847264
|142>   N   -2.09966538469790      1.08136728576209      1.36186354284823
|143>   H   -2.51314534706538      0.95404878850245      2.29440431748864
|144>   H   -1.07090923297093      1.02201963437267      1.44990497715369
|145>   H   -2.32356631527589      2.03420178450978      1.04261980501078
|146>   C   0.57425521330352      1.02128523741901     -0.55884954179794
|147>   C   1.93270748543873      0.81359394758012     -0.29862597140771
|148>   C   2.48969499966498     -0.47691646779970     -0.16195101906542
|149>   O   3.78284719897882     -0.62946514985738      0.08259850902936
|150>   H   2.99015423471338     -2.87740930369838     -0.02813772667437
|151>   H   -0.42611468482637     -2.23014793440367     -0.65969756208096
|152>   H   -1.96689772389318      1.12401616841311     -1.37842450444969
|153>   H   -2.19102811516405     -0.61967799741638     -1.59428691267428
|154>   H   -3.65362306376510      0.22659994401393      0.22913768502716
|155>   H   -2.44440275667936     -0.92683888896339      0.86979051034867
|156>   H   0.19673685267902      2.04157242484419     -0.67163370510277
|157>   H   2.60943812508310      1.66607792023117     -0.20050030237607
|158>   Cu  5.98725417277871     -4.16797993535604      0.30791607564922
|159>   Cu  4.86280245338159     -2.18252436293257      0.20358933170200
|160> *
|161> 
|162>                          ****END OF INPUT****
================================================================================


                 $$$$$$$$$$$$$$$$$$$$$$$$$$$$$$$$$$$$$$$$$$$$$$ 
                 $ THERE ARE  5 JOBS TO BE PROCESSED THIS RUN $
                 $$$$$$$$$$$$$$$$$$$$$$$$$$$$$$$$$$$$$$$$$$$$$$ 




                 $$$$$$$$$$$$$$$$  JOB NUMBER  1 $$$$$$$$$$$$$$


                       *****************************
                       * Geometry Optimization Run *
                       *****************************

Geometry optimization settings:
Update method            Update   .... BFGS
Choice of coordinates    CoordSys .... Z-matrix Internals
Initial Hessian          InHess   .... Almoef's Model

Convergence Tolerances:
Energy Change            TolE     ....  5.0000e-06 Eh
Max. Gradient            TolMAXG  ....  3.0000e-04 Eh/bohr
RMS Gradient             TolRMSG  ....  1.0000e-04 Eh/bohr
Max. Displacement        TolMAXD  ....  4.0000e-03 bohr
RMS Displacement         TolRMSD  ....  2.0000e-03 bohr
Strict Convergence                ....  False
------------------------------------------------------------------------------
                        ORCA OPTIMIZATION COORDINATE SETUP
------------------------------------------------------------------------------

The optimization will be done in new redundant internal coordinates
Making redundant internal coordinates   ...  (new redundants) done
Evaluating the initial hessian          ...  (Almloef) done
Evaluating the coordinates              ...  done
Calculating the B-matrix                .... done
Calculating the G-matrix                .... done
Diagonalizing the G-matrix              .... done
Small eigenvalue found = 1.633e-02
The first mode is                       ....   98
The number of degrees of freedom        ....   66

    -----------------------------------------------------------------
                    Redundant Internal Coordinates


    -----------------------------------------------------------------
         Definition                    Initial Value    Approx d2E/dq
    -----------------------------------------------------------------
      1. B(C   2,C   0)                  1.4166         0.566553   
      2. B(C   3,C   0)                  1.4191         0.561408   
      3. B(C   4,C   3)                  1.4044         0.592646   
      4. B(C   4,C   1)                  1.3950         0.613365   
      5. B(C   5,C   2)                  1.4017         0.598526   
      6. B(C   5,C   1)                  1.4009         0.600286   
      7. B(O   6,C   5)                  1.3654         0.612484   
      8. B(O   7,C   2)                  1.3783         0.584174   
      9. B(C   8,C   3)                  1.5054         0.408967   
     10. B(C   9,C   8)                  1.5449         0.353688   
     11. B(N  10,C   9)                  1.4634         0.427335   
     12. B(H  11,C   0)                  1.0963         0.351875   
     13. B(H  12,C   1)                  1.0915         0.358115   
     14. B(H  13,C   4)                  1.0920         0.357445   
     15. B(H  14,O   6)                  0.9814         0.480582   
     16. B(H  15,O   7)                  0.9993         0.450036   
     17. B(H  16,C   8)                  1.1031         0.343227   
     18. B(H  17,C   8)                  1.1014         0.345283   
     19. B(H  18,C   9)                  1.1021         0.344414   
     20. B(H  19,C   9)                  1.1004         0.346644   
     21. B(H  20,N  10)                  1.0241         0.410856   
     22. B(H  21,N  10)                  1.0252         0.409194   
     23. B(Cu 22,C   3)                  2.6669         0.058037   
     24. B(Cu 22,C   2)                  2.5783         0.080349   
     25. B(Cu 22,C   0)                  2.1025         0.461447   
     26. B(Cu 23,Cu 22)                  2.3051         2.218511   
     27. A(H  11,C   0,Cu 22)           90.7241         0.372599   
     28. A(C   2,C   0,H  11)          118.5957         0.346230   
     29. A(C   3,C   0,Cu 22)           96.5217         0.453474   
     30. A(C   2,C   0,C   3)          120.5115         0.419585   
     31. A(C   2,C   0,Cu 22)           92.1200         0.454227   
     32. A(C   3,C   0,H  11)          119.9982         0.345699   
     33. A(C   4,C   1,C   5)          120.4006         0.430718   
     34. A(C   5,C   1,H  12)          118.8038         0.350658   
     35. A(C   4,C   1,H  12)          120.7729         0.351938   
     36. A(O   7,C   2,Cu 22)          100.0931         0.334563   
     37. A(C   0,C   2,C   5)          120.0521         0.424410   
     38. A(C   5,C   2,Cu 22)          114.3613         0.337964   
     39. A(C   0,C   2,O   7)          122.4344         0.419827   
     40. A(C   0,C   2,Cu 22)           54.5770         0.334890   
     41. A(C   5,C   2,O   7)          117.4995         0.423964   
     42. A(C   0,C   3,C   8)          120.6055         0.396075   
     43. A(C   0,C   3,C   4)          117.9633         0.422971   
     44. A(C   0,C   3,Cu 22)           51.5615         0.316965   
     45. A(C   4,C   3,C   8)          121.4300         0.399861   
     46. A(C   8,C   3,Cu 22)          103.2461         0.301191   
     47. A(C   4,C   3,Cu 22)          112.1236         0.319776   
     48. A(C   1,C   4,C   3)          121.5569         0.429729   
     49. A(C   3,C   4,H  13)          119.3295         0.349790   
     50. A(C   1,C   4,H  13)          119.1094         0.351826   
     51. A(C   1,C   5,O   6)          120.2010         0.427796   
     52. A(C   1,C   5,C   2)          119.4870         0.428829   
     53. A(C   2,C   5,O   6)          120.2985         0.427571   
     54. A(C   5,O   6,H  14)          106.5096         0.364389   
     55. A(C   2,O   7,H  15)          106.4509         0.357435   
     56. A(H  16,C   8,H  17)          107.0775         0.286769   
     57. A(C   9,C   8,H  17)          108.8250         0.319223   
     58. A(C   3,C   8,C   9)          113.9236         0.365584   
     59. A(C   3,C   8,H  17)          109.4980         0.326916   
     60. A(C   9,C   8,H  16)          107.4035         0.318912   
     61. A(C   3,C   8,H  16)          109.8737         0.326595   
     62. A(N  10,C   9,H  19)          107.4451         0.327529   
     63. A(C   8,C   9,H  19)          109.3767         0.319428   
     64. A(N  10,C   9,H  18)          108.0381         0.327181   
     65. A(C   8,C   9,H  18)          107.5809         0.319092   
     66. A(C   8,C   9,N  10)          117.2545         0.366050   
     67. A(H  18,C   9,H  19)          106.6721         0.287100   
     68. A(H  20,N  10,H  21)          109.0908         0.298098   
     69. A(C   9,N  10,H  21)          112.9693         0.333769   
     70. A(C   9,N  10,H  20)          112.7932         0.333994   
     71. A(C   3,Cu 22,Cu 23)          157.9296         0.488936   
     72. A(C   2,Cu 22,Cu 23)          102.5381         0.519493   
     73. A(C   0,Cu 22,Cu 23)          126.8863         0.728423   
     74. A(C   2,Cu 22,C   3)           55.9613         0.258561   
     75. A(C   0,Cu 22,C   3)           31.9168         0.340854   
     76. A(C   0,Cu 22,C   2)           33.3030         0.360097   
     77. D(O   7,C   2,C   0,H  11)     13.3540         0.025662   
     78. D(Cu 22,C   2,C   0,C   3)    -98.8438         0.025662   
     79. D(O   7,C   2,C   0,Cu 22)    -78.6279         0.025662   
     80. D(C   5,C   2,C   0,H  11)   -168.0391         0.025662   
     81. D(C   5,C   2,C   0,C   3)      1.1352         0.025662   
     82. D(C   5,C   2,C   0,Cu 22)     99.9790         0.025662   
     83. D(Cu 22,C   2,C   0,H  11)     91.9819         0.025662   
     84. D(O   7,C   2,C   0,C   3)   -177.4716         0.025662   
     85. D(C   8,C   3,C   0,Cu 22)     82.5532         0.025174   
     86. D(C   8,C   3,C   0,H  11)    -12.0748         0.025174   
     87. D(C   4,C   3,C   0,C   2)     -0.7164         0.025174   
     88. D(C   8,C   3,C   0,C   2)    178.9024         0.025174   
     89. D(C   4,C   3,C   0,H  11)    168.3064         0.025174   
     90. D(Cu 22,C   3,C   0,C   2)     96.3492         0.025174   
     91. D(C   4,C   3,C   0,Cu 22)    -97.0656         0.025174   
     92. D(Cu 22,C   3,C   0,H  11)    -94.6280         0.025174   
     93. D(H  13,C   4,C   3,Cu 22)    122.9296         0.026265   
     94. D(H  13,C   4,C   3,C   8)      0.3602         0.026265   
     95. D(C   1,C   4,C   3,C   0)     -0.7795         0.026265   
     96. D(C   3,C   4,C   1,C   5)      1.8723         0.026000   
     97. D(C   1,C   4,C   3,Cu 22)    -57.8255         0.026265   
     98. D(C   1,C   4,C   3,C   8)    179.6051         0.026265   
     99. D(H  13,C   4,C   3,C   0)    179.9756         0.026265   
    100. D(C   3,C   4,C   1,H  12)   -179.8818         0.026000   
    101. D(H  13,C   4,C   1,C   5)   -178.8812         0.026000   
    102. D(H  13,C   4,C   1,H  12)     -0.6353         0.026000   
    103. D(O   6,C   5,C   1,H  12)     -1.0431         0.024842   
    104. D(C   2,C   5,C   1,H  12)   -179.7062         0.024842   
    105. D(C   2,C   5,C   1,C   4)     -1.4261         0.024842   
    106. D(C   1,C   5,C   2,C   0)     -0.0587         0.026819   
    107. D(O   6,C   5,C   1,C   4)    177.2370         0.024842   
    108. D(O   6,C   5,C   2,Cu 22)   -116.9561         0.026819   
    109. D(O   6,C   5,C   2,O   7)     -0.0461         0.026819   
    110. D(O   6,C   5,C   2,C   0)   -178.7205         0.026819   
    111. D(C   1,C   5,C   2,Cu 22)     61.7056         0.026819   
    112. D(C   1,C   5,C   2,O   7)    178.6157         0.026819   
    113. D(H  14,O   6,C   5,C   2)      2.5185         0.027475   
    114. D(H  14,O   6,C   5,C   1)   -176.1336         0.027475   
    115. D(H  15,O   7,C   2,C   5)   -125.6609         0.027397   
    116. D(H  15,O   7,C   2,C   0)     52.9797         0.027397   
    117. D(H  15,O   7,C   2,Cu 22)     -1.2586         0.027397   
    118. D(H  17,C   8,C   3,Cu 22)     61.9850         0.013251   
    119. D(H  17,C   8,C   3,C   4)   -171.3394         0.013251   
    120. D(H  17,C   8,C   3,C   0)      9.0552         0.013251   
    121. D(H  16,C   8,C   3,Cu 22)    179.3236         0.013251   
    122. D(H  16,C   8,C   3,C   4)    -54.0008         0.013251   
    123. D(H  16,C   8,C   3,C   0)    126.3938         0.013251   
    124. D(C   9,C   8,C   3,Cu 22)    -60.1261         0.013251   
    125. D(C   9,C   8,C   3,C   0)   -113.0559         0.013251   
    126. D(C   9,C   8,C   3,C   4)     66.5495         0.013251   
    127. D(H  19,C   9,C   8,H  16)     59.9266         0.010062   
    128. D(H  19,C   9,C   8,C   3)    -61.9975         0.010062   
    129. D(H  18,C   9,C   8,H  17)     60.0247         0.010062   
    130. D(H  18,C   9,C   8,H  16)    -55.5701         0.010062   
    131. D(H  18,C   9,C   8,C   3)   -177.4942         0.010062   
    132. D(N  10,C   9,C   8,H  17)    -61.8867         0.010062   
    133. D(N  10,C   9,C   8,H  16)   -177.4815         0.010062   
    134. D(H  19,C   9,C   8,H  17)    175.5214         0.010062   
    135. D(N  10,C   9,C   8,C   3)     60.5944         0.010062   
    136. D(H  21,N  10,C   9,C   8)    -76.8353         0.015569   
    137. D(H  20,N  10,C   9,H  19)    171.0369         0.015569   
    138. D(H  20,N  10,C   9,H  18)    -74.2165         0.015569   
    139. D(H  20,N  10,C   9,C   8)     47.4580         0.015569   
    140. D(H  21,N  10,C   9,H  19)     46.7435         0.015569   
    141. D(H  21,N  10,C   9,H  18)    161.4902         0.015569   
    142. D(Cu 23,Cu 22,C   3,C   8)   -138.9841         0.001517   
    143. D(Cu 23,Cu 22,C   3,C   0)    -20.2380         0.001517   
    144. D(C   2,Cu 22,C   3,C   8)   -153.3383         0.001517   
    145. D(C   2,Cu 22,C   3,C   4)     74.2864         0.001517   
    146. D(C   2,Cu 22,C   3,C   0)    -34.5922         0.001517   
    147. D(C   0,Cu 22,C   3,C   8)   -118.7461         0.001517   
    148. D(C   0,Cu 22,C   3,C   4)    108.8786         0.001517   
    149. D(Cu 23,Cu 22,C   2,O   7)    -18.5727         0.001532   
    150. D(Cu 23,Cu 22,C   2,C   5)    107.9713         0.001532   
    151. D(Cu 23,Cu 22,C   2,C   0)   -141.3858         0.001532   
    152. D(C   3,Cu 22,C   2,O   7)    155.9513         0.001532   
    153. D(C   3,Cu 22,C   2,C   5)    -77.5047         0.001532   
    154. D(C   3,Cu 22,C   2,C   0)     33.1381         0.001532   
    155. D(C   0,Cu 22,C   2,O   7)    122.8131         0.001532   
    156. D(C   0,Cu 22,C   2,C   5)   -110.6429         0.001532   
    157. D(Cu 23,Cu 22,C   0,H  11)    -69.0402         0.002435   
    158. D(Cu 23,Cu 22,C   0,C   3)    170.6475         0.002435   
    159. D(Cu 23,Cu 22,C   0,C   2)     49.6100         0.002435   
    160. D(C   3,Cu 22,C   0,H  11)    120.3124         0.002435   
    161. D(C   3,Cu 22,C   0,C   2)   -121.0375         0.002435   
    162. D(Cu 23,Cu 22,C   3,C   4)     88.6406         0.001517   
    163. D(C   2,Cu 22,C   0,H  11)   -118.6501         0.002435   
    164. D(C   2,Cu 22,C   0,C   3)    121.0375         0.002435   
    -----------------------------------------------------------------

Number of atoms                         .... 24
Number of degrees of freedom            .... 164

         *************************************************************
         *                GEOMETRY OPTIMIZATION CYCLE   1            *
         *************************************************************
---------------------------------
CARTESIAN COORDINATES (ANGSTROEM)
---------------------------------
  C     -0.233645   -0.987352   -0.847733
  C     -1.027671    1.689427   -0.628068
  C     -1.607464   -0.645371   -0.898054
  C      0.752372    0.016327   -0.662528
  C      0.322642    1.348405   -0.547701
  C     -2.001579    0.695301   -0.788445
  O     -3.325654    1.028052   -0.810124
  O     -2.600810   -1.592373   -1.025187
  C      2.211010   -0.347459   -0.584133
  C      2.844298   -0.101627    0.803384
  N      2.278704   -0.833549    1.937376
  H      0.064930   -2.003273   -1.131647
  H     -1.347306    2.729273   -0.538987
  H      1.062514    2.138657   -0.404218
  H     -3.824279    0.184653   -0.867277
  H     -2.448321   -2.261703   -0.298985
  H      2.784775    0.243267   -1.318016
  H      2.340183   -1.408276   -0.850862
  H      3.913855   -0.357589    0.731225
  H      2.791883    0.970881    1.043772
  H      2.151897   -1.830894    1.742398
  H      1.390228   -0.440208    2.264406
  Cu    -0.370582   -1.562765    1.169849
  Cu    -1.934778   -2.975857    2.102469

----------------------------
CARTESIAN COORDINATES (A.U.)
----------------------------
  NO LB      ZA    FRAG     MASS         X           Y           Z
   0 C     6.0000    0    12.011   -0.441526   -1.865824   -1.601983
   1 C     6.0000    0    12.011   -1.942017    3.192554   -1.186877
   2 C     6.0000    0    12.011   -3.037668   -1.219575   -1.697076
   3 C     6.0000    0    12.011    1.421777    0.030854   -1.251997
   4 C     6.0000    0    12.011    0.609705    2.548117   -1.035004
   5 C     6.0000    0    12.011   -3.782436    1.313929   -1.489945
   6 O     8.0000    0    15.999   -6.284574    1.942736   -1.530912
   7 O     8.0000    0    15.999   -4.914819   -3.009149   -1.937322
   8 C     6.0000    0    12.011    4.178203   -0.656602   -1.103851
   9 C     6.0000    0    12.011    5.374943   -0.192047    1.518175
  10 N     7.0000    0    14.007    4.306126   -1.575179    3.661109
  11 H     1.0000    0     1.008    0.122701   -3.785638   -2.138503
  12 H     1.0000    0     1.008   -2.546040    5.157579   -1.018537
  13 H     1.0000    0     1.008    2.007860    4.041477   -0.763862
  14 H     1.0000    0     1.008   -7.226841    0.348943   -1.638916
  15 H     1.0000    0     1.008   -4.626657   -4.273998   -0.564999
  16 H     1.0000    0     1.008    5.262463    0.459708   -2.490689
  17 H     1.0000    0     1.008    4.422306   -2.661257   -1.607896
  18 H     1.0000    0     1.008    7.396114   -0.675745    1.381815
  19 H     1.0000    0     1.008    5.275893    1.834699    1.972443
  20 H     1.0000    0     1.008    4.066496   -3.459888    3.292654
  21 H     1.0000    0     1.008    2.627150   -0.831873    4.279108
  22 Cu   29.0000    0    63.550   -0.700298   -2.953198    2.210694
  23 Cu   29.0000    0    63.550   -3.656200   -5.623556    3.973091

--------------------------------
INTERNAL COORDINATES (ANGSTROEM)
--------------------------------
 C      0   0   0     0.000000000000     0.00000000     0.00000000
 C      1   0   0     2.800691548032     0.00000000     0.00000000
 C      1   2   0     1.416637385156    59.80943828     0.00000000
 C      1   2   3     1.419120457679    60.71113223   181.09214911
 C      2   1   3     1.395026755464    59.76520607   178.51746244
 C      2   1   3     1.400893889469    60.65145368   359.97059937
 O      6   2   1     1.365418036946   120.20097035   178.69257291
 O      3   1   2     1.378300124535   122.43440323   181.42272577
 C      4   1   2     1.505360567705   120.60554370   179.99810667
 C      9   4   1     1.544891039563   113.92364247   246.94406577
 N     10   9   4     1.463401506708   117.25454765    60.59440423
 H      1   2   3     1.096289880196   169.48811781    84.24517362
 H      2   1   3     1.091504767263   179.40830003    23.01288426
 H      5   2   1     1.092014706779   119.10941334   179.65026838
 H      7   6   2     0.981435715860   106.50959345   183.86636209
 H      8   3   1     0.999311733387   106.45093372    52.97967059
 H      9   4   1     1.103063216302   109.87366431   126.39383767
 H      9   4   1     1.101437420522   109.49801353     9.05520756
 H     10   9   4     1.102123476593   107.58091684   182.50583886
 H     10   9   4     1.100366751498   109.37674363   298.00248687
 H     11  10   9     1.024106098484   112.79316152    47.45798808
 H     11  10   9     1.025209617746   112.96933325   283.16467638
 Cu     1   2   3     2.102495925156    99.66241036   273.18965585
 Cu    23   1   2     2.305064214345   126.88633632   109.33429461

---------------------------
INTERNAL COORDINATES (A.U.)
---------------------------
 C      0   0   0     0.000000000000     0.00000000     0.00000000
 C      1   0   0     5.292540011368     0.00000000     0.00000000
 C      1   2   0     2.677056689020    59.80943828     0.00000000
 C      1   2   3     2.681749016059    60.71113223   181.09214911
 C      2   1   3     2.636218517321    59.76520607   178.51746244
 C      2   1   3     2.647305793780    60.65145368   359.97059937
 O      6   2   1     2.580266148145   120.20097035   178.69257291
 O      3   1   2     2.604609765721   122.43440323   181.42272577
 C      4   1   2     2.844719205767   120.60554370   179.99810667
 C      9   4   1     2.919420971523   113.92364247   246.94406577
 N     10   9   4     2.765428071646   117.25454765    60.59440423
 H      1   2   3     2.071687636960   169.48811781    84.24517362
 H      2   1   3     2.062645083996   179.40830003    23.01288426
 H      5   2   1     2.063608730027   119.10941334   179.65026838
 H      7   6   2     1.854644721024   106.50959345   183.86636209
 H      8   3   1     1.888425498516   106.45093372    52.97967059
 H      9   4   1     2.084487387214   109.87366431   126.39383767
 H      9   4   1     2.081415078440   109.49801353     9.05520756
 H     10   9   4     2.082711536526   107.58091684   182.50583886
 H     10   9   4     2.079391807203   109.37674363   298.00248687
 H     11  10   9     1.935280058212   112.79316152    47.45798808
 H     11  10   9     1.937365407402   112.96933325   283.16467638
 Cu     1   2   3     3.973141496231    99.66241036   273.18965585
 Cu    23   1   2     4.355940086214   126.88633632   109.33429461

---------------------
BASIS SET INFORMATION
---------------------
There are 5 groups of distinct atoms

 Group   1 Type C   : 11s6p2d1f contracted to 5s3p2d1f pattern {62111/411/11/1}
 Group   2 Type O   : 11s6p2d1f contracted to 5s3p2d1f pattern {62111/411/11/1}
 Group   3 Type N   : 11s6p2d1f contracted to 5s3p2d1f pattern {62111/411/11/1}
 Group   4 Type H   : 5s1p contracted to 3s1p pattern {311/1}
 Group   5 Type Cu  : 17s11p7d1f contracted to 6s4p4d1f pattern {842111/6311/4111/1}

Atom   0C    basis set group =>   1
Atom   1C    basis set group =>   1
Atom   2C    basis set group =>   1
Atom   3C    basis set group =>   1
Atom   4C    basis set group =>   1
Atom   5C    basis set group =>   1
Atom   6O    basis set group =>   2
Atom   7O    basis set group =>   2
Atom   8C    basis set group =>   1
Atom   9C    basis set group =>   1
Atom  10N    basis set group =>   3
Atom  11H    basis set group =>   4
Atom  12H    basis set group =>   4
Atom  13H    basis set group =>   4
Atom  14H    basis set group =>   4
Atom  15H    basis set group =>   4
Atom  16H    basis set group =>   4
Atom  17H    basis set group =>   4
Atom  18H    basis set group =>   4
Atom  19H    basis set group =>   4
Atom  20H    basis set group =>   4
Atom  21H    basis set group =>   4
Atom  22Cu   basis set group =>   5
Atom  23Cu   basis set group =>   5
---------------------------------
AUXILIARY/J BASIS SET INFORMATION
---------------------------------
There are 5 groups of distinct atoms

 Group   1 Type C   : 12s5p4d2f1g contracted to 6s4p3d1f1g pattern {711111/2111/211/2/1}
 Group   2 Type O   : 12s5p4d2f1g contracted to 6s4p3d1f1g pattern {711111/2111/211/2/1}
 Group   3 Type N   : 12s5p4d2f1g contracted to 6s4p3d1f1g pattern {711111/2111/211/2/1}
 Group   4 Type H   : 5s2p1d contracted to 3s1p1d pattern {311/2/1}
 Group   5 Type Cu  : 19s5p5d3f3g contracted to 8s5p4d3f3g pattern {121111111/11111/2111/111/111}

Atom   0C    basis set group =>   1
Atom   1C    basis set group =>   1
Atom   2C    basis set group =>   1
Atom   3C    basis set group =>   1
Atom   4C    basis set group =>   1
Atom   5C    basis set group =>   1
Atom   6O    basis set group =>   2
Atom   7O    basis set group =>   2
Atom   8C    basis set group =>   1
Atom   9C    basis set group =>   1
Atom  10N    basis set group =>   3
Atom  11H    basis set group =>   4
Atom  12H    basis set group =>   4
Atom  13H    basis set group =>   4
Atom  14H    basis set group =>   4
Atom  15H    basis set group =>   4
Atom  16H    basis set group =>   4
Atom  17H    basis set group =>   4
Atom  18H    basis set group =>   4
Atom  19H    basis set group =>   4
Atom  20H    basis set group =>   4
Atom  21H    basis set group =>   4
Atom  22Cu   basis set group =>   5
Atom  23Cu   basis set group =>   5


           ************************************************************
           *        Program running with 16 parallel MPI-processes    *
           *              working on a common directory               *
           ************************************************************
------------------------------------------------------------------------------
                           ORCA GTO INTEGRAL CALCULATION
                           -- RI-GTO INTEGRALS CHOSEN --
------------------------------------------------------------------------------
------------------------------------------------------------------------------
                   ___                                                        
                  /   \      - P O W E R E D   B Y -                         
                 /     \                                                     
                 |  |  |   _    _      __       _____    __    __             
                 |  |  |  | |  | |    /  \     |  _  \  |  |  /  |          
                  \  \/   | |  | |   /    \    | | | |  |  | /  /          
                 / \  \   | |__| |  /  /\  \   | |_| |  |  |/  /          
                |  |  |   |  __  | /  /__\  \  |    /   |      \           
                |  |  |   | |  | | |   __   |  |    \   |  |\   \          
                \     /   | |  | | |  |  |  |  | |\  \  |  | \   \       
                 \___/    |_|  |_| |__|  |__|  |_| \__\ |__|  \__/        
                                                                              
                      - O R C A' S   B I G   F R I E N D -                    
                                      &                                       
                       - I N T E G R A L  F E E D E R -                       
                                                                              
 v1 FN, 2020, v2 2021                                                         
------------------------------------------------------------------------------


Reading SHARK input file neutral.SHARKINP.tmp ... ok
----------------------
SHARK INTEGRAL PACKAGE
----------------------

Number of atoms                             ...     24
Number of basis functions                   ...    497
Number of shells                            ...    195
Maximum angular momentum                    ...      3
Integral batch strategy                     ... SHARK/LIBINT Hybrid
RI-J (if used) integral strategy            ... SPLIT-RIJ (Revised 2003 algorithm where possible)
Printlevel                                  ...      1
Contraction scheme used                     ... SEGMENTED contraction
Coulomb Range Separation                    ... NOT USED
Exchange Range Separation                   ... NOT USED
Finite Nucleus Model                        ... NOT USED
Auxiliary Coulomb fitting basis             ... AVAILABLE
   # of basis functions in Aux-J            ...    842
   # of shells in Aux-J                     ...    266
   Maximum angular momentum in Aux-J        ...      4
Auxiliary J/K fitting basis                 ... NOT available
Auxiliary Correlation fitting basis         ... NOT available
Auxiliary 'external' fitting basis          ... NOT available
Integral threshold                          ...     2.500000e-11
Primitive cut-off                           ...     2.500000e-12
Primitive pair pre-selection threshold      ...     2.500000e-12

Calculating pre-screening integrals         ... done (  0.1 sec) Dimension = 195
Organizing shell pair data                  ... done (  0.4 sec)
Shell pair information
Total number of shell pairs                 ...     19110
Shell pairs after pre-screening             ...     15636
Total number of primitive shell pairs       ...     64654
Primitive shell pairs kept                  ...     35573
          la=0 lb=0:   4015 shell pairs
          la=1 lb=0:   4298 shell pairs
          la=1 lb=1:   1186 shell pairs
          la=2 lb=0:   2457 shell pairs
          la=2 lb=1:   1342 shell pairs
          la=2 lb=2:    400 shell pairs
          la=3 lb=0:    991 shell pairs
          la=3 lb=1:    554 shell pairs
          la=3 lb=2:    322 shell pairs
          la=3 lb=3:     71 shell pairs

Calculating one electron integrals          ... done (  0.0 sec)
Calculating RI/J V-Matrix + Cholesky decomp.... done (  0.0 sec)
Calculating Nuclear repulsion               ... done (  0.0 sec) ENN=   1460.813359767424 Eh

SHARK setup successfully completed in   0.9 seconds

Maximum memory used throughout the entire GTOINT-calculation: 32.1 MB


           ************************************************************
           *        Program running with 16 parallel MPI-processes    *
           *              working on a common directory               *
           ************************************************************
-------------------------------------------------------------------------------
                                 ORCA SCF
-------------------------------------------------------------------------------

------------
SCF SETTINGS
------------
Hamiltonian:
 Density Functional     Method          .... DFT(GTOs)
 Exchange Functional    Exchange        .... PBE
   PBE kappa parameter   XKappa         ....  0.804000
   PBE mue parameter    XMuePBE         ....  0.219520
 Correlation Functional Correlation     .... PBE
   PBE beta parameter  CBetaPBE         ....  0.066725
 LDA part of GGA corr.  LDAOpt          .... PW91-LDA
 Gradients option       PostSCFGGA      .... off
   Density functional embedding theory  .... OFF
   NL short-range parameter             ....  6.400000
 RI-approximation to the Coulomb term is turned on
   Number of AuxJ basis functions       .... 842


General Settings:
 Integral files         IntName         .... neutral
 Hartree-Fock type      HFTyp           .... RHF
 Total Charge           Charge          ....    0
 Multiplicity           Mult            ....    1
 Number of Electrons    NEL             ....  140
 Basis Dimension        Dim             ....  497
 Nuclear Repulsion      ENuc            ....   1460.8133597674 Eh

Convergence Acceleration:
 DIIS                   CNVDIIS         .... on
   Start iteration      DIISMaxIt       ....    12
   Startup error        DIISStart       ....  0.200000
   # of expansion vecs  DIISMaxEq       ....     5
   Bias factor          DIISBfac        ....   1.050
   Max. coefficient     DIISMaxC        ....  10.000
 Trust-Rad. Augm. Hess. CNVTRAH         .... auto
   Auto Start mean grad. ratio tolernc. ....  1.125000
   Auto Start start iteration           ....    20
   Auto Start num. interpolation iter.  ....    10
   Max. Number of Micro iterations      ....    16
   Max. Number of Macro iterations      .... Maxiter - #DIIS iter
   Number of Davidson start vectors     ....     2
   Converg. threshold I  (grad. norm)   ....   1.000e-05
   Converg. threshold II (energy diff.) ....   1.000e-08
   Grad. Scal. Fac. for Micro threshold ....   0.100
   Minimum threshold for Micro iter.    ....   0.010
   NR start threshold (gradient norm)   ....   0.001
   Initial trust radius                 ....   0.400
   Minimum AH scaling param. (alpha)    ....   1.000
   Maximum AH scaling param. (alpha)    .... 1000.000
   Orbital update algorithm             .... Taylor
   White noise on init. David. guess    .... on
   Maximum white noise                  ....   0.010
   Quad. conv. algorithm                .... NR
 SOSCF                  CNVSOSCF        .... off
 Level Shifting         CNVShift        .... on
   Level shift para.    LevelShift      ....    0.2500
   Turn off err/grad.   ShiftErr        ....    0.0010
 Zerner damping         CNVZerner       .... off
 Static damping         CNVDamp         .... on
   Fraction old density DampFac         ....    0.7000
   Max. Damping (<1)    DampMax         ....    0.9800
   Min. Damping (>=0)   DampMin         ....    0.0000
   Turn off err/grad.   DampErr         ....    0.1000
 Fernandez-Rico         CNVRico         .... off

SCF Procedure:
 Maximum # iterations   MaxIter         ....   125
 SCF integral mode      SCFMode         .... Direct
   Integral package                     .... SHARK and LIBINT hybrid scheme
 Reset frequency        DirectResetFreq ....    20
 Integral Threshold     Thresh          ....  2.500e-11 Eh
 Primitive CutOff       TCut            ....  2.500e-12 Eh

Convergence Tolerance:
 Convergence Check Mode ConvCheckMode   .... Total+1el-Energy
 Convergence forced     ConvForced      .... 0
 Energy Change          TolE            ....  1.000e-08 Eh
 1-El. energy change                    ....  1.000e-05 Eh
 DIIS Error             TolErr          ....  5.000e-07


Diagonalization of the overlap matrix:
Smallest eigenvalue                        ... 8.615e-06
Time for diagonalization                   ...    0.073 sec
Threshold for overlap eigenvalues          ... 1.000e-08
Number of eigenvalues below threshold      ... 0
Time for construction of square roots      ...    0.045 sec
Total time needed                          ...    0.120 sec

Time for model grid setup =    0.262 sec

------------------------------
INITIAL GUESS: MODEL POTENTIAL
------------------------------
Loading Hartree-Fock densities                     ... done
Calculating cut-offs                               ... done
Initializing the effective Hamiltonian             ... done
Setting up the integral package (SHARK)            ... done
Starting the Coulomb interaction                   ... done (   0.2 sec)
Reading the grid                                   ... done
Mapping shells                                     ... done
Starting the XC term evaluation                    ... done (   0.2 sec)
  promolecular density results
     # of electrons  =    139.993570191
     EX              =   -198.044981986
     EC              =     -5.470778376
     EX+EC           =   -203.515760362
Transforming the Hamiltonian                       ... done (   0.0 sec)
Diagonalizing the Hamiltonian                      ... done (   0.1 sec)
Back transforming the eigenvectors                 ... done (   0.0 sec)
Now organizing SCF variables                       ... done
                      ------------------
                      INITIAL GUESS DONE (   0.8 sec)
                      ------------------
-------------------
DFT GRID GENERATION
-------------------

General Integration Accuracy     IntAcc      ... 4.388
Radial Grid Type                 RadialGrid  ... OptM3 with GC (2021)
Angular Grid (max. ang.)         AngularGrid ... 4 (Lebedev-302)
Angular grid pruning method      GridPruning ... 4 (adaptive)
Weight generation scheme         WeightScheme... Becke
Basis function cutoff            BFCut       ... 1.0000e-11
Integration weight cutoff        WCut        ... 1.0000e-14
Angular grids for H and He will be reduced by one unit
Partially contracted basis set               ... off
Rotationally invariant grid construction     ... off

Total number of grid points                  ...   122935
Total number of batches                      ...     1931
Average number of points per batch           ...       63
Average number of grid points per atom       ...     5122
Time for grid setup =    1.126 sec


--------------------
CPCM SOLVATION MODEL
--------------------
CPCM parameters:
  Epsilon                                         ...      80.4000
  Refrac                                          ...       1.3300
  Rsolv                                           ...       1.3000
  Surface type                                    ... GAUSSIAN VDW
  Epsilon function type                           ...         CPCM
Radii:
 Radius for C  used is    3.8550 Bohr (=   2.0400 Ang.)
 Radius for O  used is    3.4469 Bohr (=   1.8240 Ang.)
 Radius for N  used is    3.5149 Bohr (=   1.8600 Ang.)
 Radius for H  used is    2.4944 Bohr (=   1.3200 Ang.)
 Radius for Cu used is    3.1747 Bohr (=   1.6800 Ang.)
Calculating surface                               ...        done! (  0.0s)
GEPOL surface points                              ...         1393
GEPOL Volume                                      ...    1478.5376
GEPOL Surface-area                                ...     821.0565
Calculating surface distance matrix               ...        done! (  0.0s)
Performing Cholesky decomposition & store         ...        done! (  0.2s)
Overall time for CPCM initialization              ...                 0.2s
--------------
SCF ITERATIONS
--------------
ITER       Energy         Delta-E        Max-DP      RMS-DP      [F,P]     Damp
               ***  Starting incremental Fock matrix formation  ***
  0  -3796.5042737358   0.000000000000 0.58955124  0.00432328  0.2265361 0.7000
  1  -3796.6689540734  -0.164680337582 0.26691379  0.00216708  0.0874976 0.7000
                               ***Turning on DIIS***
  2  -3796.7275787427  -0.058624669302 0.58696425  0.00381265  0.0484056 0.0000
  3  -3796.8229973585  -0.095418615741 0.19653281  0.00132348  0.0991192 0.0000
  4  -3796.8536501325  -0.030652774013 0.05634998  0.00057815  0.0133220 0.0000
  5  -3796.8552487609  -0.001598628401 0.01713196  0.00020012  0.0101153 0.0000
  6  -3796.8554892388  -0.000240477881 0.01355901  0.00011073  0.0048068 0.0000
  7  -3796.8555226730  -0.000033434267 0.00181917  0.00002583  0.0032907 0.0000
  8  -3796.8555372720  -0.000014599014 0.00813464  0.00006173  0.0008557 0.0000
  9  -3796.8555395353  -0.000002263291 0.00072334  0.00000777  0.0012043 0.0000
 10  -3796.8555418905  -0.000002355157 0.00050013  0.00000736  0.0004873 0.0000
 11  -3796.8555420247  -0.000000134263 0.00038875  0.00000419  0.0003258 0.0000
 12  -3796.8555422259  -0.000000201108 0.00080969  0.00000586  0.0001653 0.0000
 13  -3796.8555422800  -0.000000054158 0.00034259  0.00000270  0.0000381 0.0000
 14  -3796.8555422797   0.000000000344 0.00039047  0.00000239  0.0000304 0.0000
 15  -3796.8555422818  -0.000000002174 0.00009637  0.00000088  0.0000126 0.0000
 16  -3796.8555422721   0.000000009712 0.00008434  0.00000061  0.0000097 0.0000
 17  -3796.8555422563   0.000000015832 0.00049527  0.00000335  0.0000026 0.0000
 18  -3796.8555422642  -0.000000007922 0.00044819  0.00000382  0.0000011 0.0000
                            ***DIIS convergence achieved***

               *****************************************************
               *                     SUCCESS                       *
               *           SCF CONVERGED AFTER  19 CYCLES          *
               *****************************************************


----------------
TOTAL SCF ENERGY
----------------

Total Energy       :        -3796.85554226 Eh         -103317.69187 eV

Components:
Nuclear Repulsion  :         1460.81335977 Eh           39750.75241 eV
Electronic Energy  :        -5257.66890202 Eh         -143068.44428 eV
One Electron Energy:        -8185.94020697 Eh         -222750.75746 eV
Two Electron Energy:         2928.27130494 Eh           79682.31318 eV
CPCM Dielectric    :           -0.02076513 Eh              -0.56505 eV

Virial components:
Potential Energy   :        -7586.49229377 Eh         -206438.95047 eV
Kinetic Energy     :         3789.63675152 Eh          103121.25859 eV
Virial Ratio       :            2.00190488


DFT components:
N(Alpha)           :       70.000202774447 electrons
N(Beta)            :       70.000202774447 electrons
N(Total)           :      140.000405548894 electrons
E(X)               :     -199.394172616361 Eh       
E(C)               :       -5.480738158579 Eh       
E(XC)              :     -204.874910774940 Eh       
DFET-embed. en.    :        0.000000000000 Eh       
CPCM Solvation Model Properties:
Surface-charge          :           -0.06970856
Charge-correction       :            0.00056117 Eh               0.01527 eV
Free-energy (cav+disp)  :  This term is not implemented in the current solvation scheme

---------------
SCF CONVERGENCE
---------------

  Last Energy change         ...    6.8239e-09  Tolerance :   1.0000e-08
  Last MAX-Density change    ...    2.4106e-04  Tolerance :   1.0000e-07
  Last RMS-Density change    ...    2.1908e-06  Tolerance :   5.0000e-09
  Last DIIS Error            ...    9.5001e-07  Tolerance :   5.0000e-07

             **** THE GBW FILE WAS UPDATED (neutral.gbw) ****
             **** DENSITY neutral.scfp WAS UPDATED ****
             **** ENERGY FILE WAS UPDATED (neutral.en.tmp) ****
             **** THE GBW FILE WAS UPDATED (neutral.gbw) ****
             **** DENSITY neutral.scfp WAS UPDATED ****
----------------
ORBITAL ENERGIES
----------------

  NO   OCC          E(Eh)            E(eV) 
   0   2.0000    -321.489956     -8748.1865 
   1   2.0000    -321.465086     -8747.5097 
   2   2.0000     -38.258354     -1041.0627 
   3   2.0000     -38.231693     -1040.3373 
   4   2.0000     -33.549756      -912.9353 
   5   2.0000     -33.548970      -912.9139 
   6   2.0000     -33.548885      -912.9116 
   7   2.0000     -33.522836      -912.2027 
   8   2.0000     -33.522630      -912.1971 
   9   2.0000     -33.522469      -912.1928 
  10   2.0000     -18.783728      -511.1312 
  11   2.0000     -18.780425      -511.0413 
  12   2.0000     -13.974993      -380.2789 
  13   2.0000      -9.950629      -270.7704 
  14   2.0000      -9.946698      -270.6634 
  15   2.0000      -9.906559      -269.5712 
  16   2.0000      -9.903200      -269.4798 
  17   2.0000      -9.902301      -269.4553 
  18   2.0000      -9.891564      -269.1631 
  19   2.0000      -9.888738      -269.0862 
  20   2.0000      -9.883461      -268.9426 
  21   2.0000      -4.088469      -111.2529 
  22   2.0000      -4.061009      -110.5057 
  23   2.0000      -2.626269       -71.4644 
  24   2.0000      -2.622828       -71.3708 
  25   2.0000      -2.621063       -71.3228 
  26   2.0000      -2.598620       -70.7120 
  27   2.0000      -2.595138       -70.6173 
  28   2.0000      -2.594161       -70.5907 
  29   2.0000      -0.985035       -26.8042 
  30   2.0000      -0.957272       -26.0487 
  31   2.0000      -0.809055       -22.0155 
  32   2.0000      -0.782149       -21.2834 
  33   2.0000      -0.704156       -19.1611 
  34   2.0000      -0.679595       -18.4927 
  35   2.0000      -0.641822       -17.4649 
  36   2.0000      -0.576235       -15.6802 
  37   2.0000      -0.568995       -15.4832 
  38   2.0000      -0.527387       -14.3509 
  39   2.0000      -0.501644       -13.6504 
  40   2.0000      -0.478522       -13.0212 
  41   2.0000      -0.453504       -12.3405 
  42   2.0000      -0.441252       -12.0071 
  43   2.0000      -0.412672       -11.2294 
  44   2.0000      -0.402954       -10.9649 
  45   2.0000      -0.394137       -10.7250 
  46   2.0000      -0.387231       -10.5371 
  47   2.0000      -0.380766       -10.3612 
  48   2.0000      -0.356666        -9.7054 
  49   2.0000      -0.351574        -9.5668 
  50   2.0000      -0.344068        -9.3626 
  51   2.0000      -0.321179        -8.7397 
  52   2.0000      -0.314420        -8.5558 
  53   2.0000      -0.306626        -8.3437 
  54   2.0000      -0.296575        -8.0702 
  55   2.0000      -0.279942        -7.6176 
  56   2.0000      -0.249267        -6.7829 
  57   2.0000      -0.224519        -6.1095 
  58   2.0000      -0.218203        -5.9376 
  59   2.0000      -0.203426        -5.5355 
  60   2.0000      -0.199339        -5.4243 
  61   2.0000      -0.195627        -5.3233 
  62   2.0000      -0.192162        -5.2290 
  63   2.0000      -0.190333        -5.1792 
  64   2.0000      -0.170299        -4.6341 
  65   2.0000      -0.167912        -4.5691 
  66   2.0000      -0.167612        -4.5610 
  67   2.0000      -0.165041        -4.4910 
  68   2.0000      -0.163070        -4.4374 
  69   2.0000      -0.162059        -4.4099 
  70   0.0000      -0.067750        -1.8436 
  71   0.0000      -0.055347        -1.5061 
  72   0.0000      -0.038666        -1.0521 
  73   0.0000      -0.017784        -0.4839 
  74   0.0000      -0.001790        -0.0487 
  75   0.0000       0.024346         0.6625 
  76   0.0000       0.032504         0.8845 
  77   0.0000       0.045751         1.2449 
  78   0.0000       0.049966         1.3596 
  79   0.0000       0.056976         1.5504 
  80   0.0000       0.067384         1.8336 
  81   0.0000       0.079533         2.1642 
  82   0.0000       0.084107         2.2887 
  83   0.0000       0.089441         2.4338 
  84   0.0000       0.094383         2.5683 
  85   0.0000       0.102679         2.7940 
  86   0.0000       0.108625         2.9558 
  87   0.0000       0.115747         3.1496 
  88   0.0000       0.117977         3.2103 
  89   0.0000       0.130092         3.5400 
  90   0.0000       0.143648         3.9089 
  91   0.0000       0.146022         3.9735 
  92   0.0000       0.156072         4.2469 
  93   0.0000       0.158880         4.3233 
  94   0.0000       0.165524         4.5041 
  95   0.0000       0.172587         4.6963 
  96   0.0000       0.177998         4.8436 
  97   0.0000       0.183961         5.0058 
  98   0.0000       0.185654         5.0519 
  99   0.0000       0.198692         5.4067 
 100   0.0000       0.200175         5.4471 
 101   0.0000       0.208543         5.6747 
 102   0.0000       0.218546         5.9469 
 103   0.0000       0.220777         6.0076 
 104   0.0000       0.231429         6.2975 
 105   0.0000       0.236897         6.4463 
 106   0.0000       0.246195         6.6993 
 107   0.0000       0.251944         6.8557 
 108   0.0000       0.255482         6.9520 
 109   0.0000       0.265320         7.2197 
 110   0.0000       0.269179         7.3247 
 111   0.0000       0.272831         7.4241 
 112   0.0000       0.285659         7.7732 
 113   0.0000       0.293628         7.9900 
 114   0.0000       0.296917         8.0795 
 115   0.0000       0.302047         8.2191 
 116   0.0000       0.307829         8.3764 
 117   0.0000       0.314794         8.5660 
 118   0.0000       0.318462         8.6658 
 119   0.0000       0.323536         8.8039 
 120   0.0000       0.330243         8.9864 
 121   0.0000       0.335175         9.1206 
 122   0.0000       0.342610         9.3229 
 123   0.0000       0.352766         9.5992 
 124   0.0000       0.360242         9.8027 
 125   0.0000       0.370347        10.0777 
 126   0.0000       0.379278        10.3207 
 127   0.0000       0.386033        10.5045 
 128   0.0000       0.392369        10.6769 
 129   0.0000       0.394142        10.7251 
 130   0.0000       0.398414        10.8414 
 131   0.0000       0.402360        10.9488 
 132   0.0000       0.413969        11.2647 
 133   0.0000       0.417710        11.3665 
 134   0.0000       0.424670        11.5559 
 135   0.0000       0.430154        11.7051 
 136   0.0000       0.435806        11.8589 
 137   0.0000       0.442609        12.0440 
 138   0.0000       0.455102        12.3840 
 139   0.0000       0.457520        12.4497 
 140   0.0000       0.466890        12.7047 
 141   0.0000       0.478502        13.0207 
 142   0.0000       0.485942        13.2231 
 143   0.0000       0.498077        13.5534 
 144   0.0000       0.507479        13.8092 
 145   0.0000       0.510017        13.8783 
 146   0.0000       0.524346        14.2682 
 147   0.0000       0.525586        14.3019 
 148   0.0000       0.540969        14.7205 
 149   0.0000       0.555787        15.1237 
 150   0.0000       0.557879        15.1807 
 151   0.0000       0.568607        15.4726 
 152   0.0000       0.571521        15.5519 
 153   0.0000       0.597063        16.2469 
 154   0.0000       0.602418        16.3926 
 155   0.0000       0.618843        16.8396 
 156   0.0000       0.625976        17.0337 
 157   0.0000       0.630984        17.1699 
 158   0.0000       0.647719        17.6253 
 159   0.0000       0.655175        17.8282 
 160   0.0000       0.665064        18.0973 
 161   0.0000       0.672624        18.3030 
 162   0.0000       0.675926        18.3929 
 163   0.0000       0.687451        18.7065 
 164   0.0000       0.695682        18.9305 
 165   0.0000       0.708555        19.2808 
 166   0.0000       0.718925        19.5629 
 167   0.0000       0.728796        19.8315 
 168   0.0000       0.741999        20.1908 
 169   0.0000       0.765137        20.8204 
 170   0.0000       0.778862        21.1939 
 171   0.0000       0.782611        21.2959 
 172   0.0000       0.795914        21.6579 
 173   0.0000       0.807146        21.9636 
 174   0.0000       0.822215        22.3736 
 175   0.0000       0.831784        22.6340 
 176   0.0000       0.837855        22.7992 
 177   0.0000       0.857244        23.3268 
 178   0.0000       0.866481        23.5781 
 179   0.0000       0.875205        23.8155 
 180   0.0000       0.882440        24.0124 
 181   0.0000       0.887366        24.1465 
 182   0.0000       0.900236        24.4967 
 183   0.0000       0.918236        24.9865 
 184   0.0000       0.928800        25.2739 
 185   0.0000       0.943681        25.6789 
 186   0.0000       0.948701        25.8155 
 187   0.0000       0.982819        26.7439 
 188   0.0000       0.983675        26.7672 
 189   0.0000       0.995039        27.0764 
 190   0.0000       1.004099        27.3229 
 191   0.0000       1.016649        27.6644 
 192   0.0000       1.025481        27.9048 
 193   0.0000       1.044218        28.4146 
 194   0.0000       1.051566        28.6146 
 195   0.0000       1.057961        28.7886 
 196   0.0000       1.083179        29.4748 
 197   0.0000       1.087069        29.5807 
 198   0.0000       1.098393        29.8888 
 199   0.0000       1.113639        30.3037 
 200   0.0000       1.127562        30.6825 
 201   0.0000       1.138834        30.9893 
 202   0.0000       1.164714        31.6935 
 203   0.0000       1.180368        32.1194 
 204   0.0000       1.191375        32.4190 
 205   0.0000       1.197354        32.5817 
 206   0.0000       1.212346        32.9896 
 207   0.0000       1.221263        33.2323 
 208   0.0000       1.229864        33.4663 
 209   0.0000       1.251428        34.0531 
 210   0.0000       1.259574        34.2748 
 211   0.0000       1.260080        34.2885 
 212   0.0000       1.285094        34.9692 
 213   0.0000       1.302381        35.4396 
 214   0.0000       1.309880        35.6437 
 215   0.0000       1.323838        36.0235 
 216   0.0000       1.333914        36.2977 
 217   0.0000       1.348336        36.6901 
 218   0.0000       1.365713        37.1629 
 219   0.0000       1.381999        37.6061 
 220   0.0000       1.393229        37.9117 
 221   0.0000       1.415390        38.5147 
 222   0.0000       1.445718        39.3400 
 223   0.0000       1.454988        39.5922 
 224   0.0000       1.475526        40.1511 
 225   0.0000       1.483849        40.3776 
 226   0.0000       1.499665        40.8079 
 227   0.0000       1.505194        40.9584 
 228   0.0000       1.515534        41.2398 
 229   0.0000       1.550943        42.2033 
 230   0.0000       1.558146        42.3993 
 231   0.0000       1.565865        42.6094 
 232   0.0000       1.571547        42.7640 
 233   0.0000       1.590614        43.2828 
 234   0.0000       1.607980        43.7554 
 235   0.0000       1.617526        44.0151 
 236   0.0000       1.642510        44.6950 
 237   0.0000       1.649338        44.8808 
 238   0.0000       1.661591        45.2142 
 239   0.0000       1.664228        45.2859 
 240   0.0000       1.689234        45.9664 
 241   0.0000       1.692132        46.0453 
 242   0.0000       1.705951        46.4213 
 243   0.0000       1.740443        47.3599 
 244   0.0000       1.749595        47.6089 
 245   0.0000       1.753950        47.7274 
 246   0.0000       1.770120        48.1674 
 247   0.0000       1.785364        48.5822 
 248   0.0000       1.811754        49.3003 
 249   0.0000       1.820229        49.5309 
 250   0.0000       1.821700        49.5710 
 251   0.0000       1.844002        50.1779 
 252   0.0000       1.866149        50.7805 
 253   0.0000       1.867418        50.8150 
 254   0.0000       1.877104        51.0786 
 255   0.0000       1.906241        51.8715 
 256   0.0000       1.915713        52.1292 
 257   0.0000       1.931827        52.5677 
 258   0.0000       1.951783        53.1107 
 259   0.0000       1.957390        53.2633 
 260   0.0000       1.985288        54.0224 
 261   0.0000       1.997001        54.3412 
 262   0.0000       2.022489        55.0347 
 263   0.0000       2.050139        55.7871 
 264   0.0000       2.061176        56.0875 
 265   0.0000       2.067854        56.2692 
 266   0.0000       2.077070        56.5199 
 267   0.0000       2.089650        56.8623 
 268   0.0000       2.096815        57.0572 
 269   0.0000       2.111934        57.4686 
 270   0.0000       2.132063        58.0164 
 271   0.0000       2.156387        58.6783 
 272   0.0000       2.165051        58.9140 
 273   0.0000       2.174101        59.1603 
 274   0.0000       2.181561        59.3633 
 275   0.0000       2.199576        59.8535 
 276   0.0000       2.224551        60.5331 
 277   0.0000       2.232792        60.7573 
 278   0.0000       2.238187        60.9042 
 279   0.0000       2.258327        61.4522 
 280   0.0000       2.263283        61.5871 
 281   0.0000       2.272198        61.8296 
 282   0.0000       2.285627        62.1951 
 283   0.0000       2.299850        62.5821 
 284   0.0000       2.310333        62.8674 
 285   0.0000       2.342848        63.7521 
 286   0.0000       2.347191        63.8703 
 287   0.0000       2.362861        64.2967 
 288   0.0000       2.371473        64.5311 
 289   0.0000       2.375889        64.6512 
 290   0.0000       2.401656        65.3524 
 291   0.0000       2.414856        65.7116 
 292   0.0000       2.431198        66.1563 
 293   0.0000       2.454598        66.7930 
 294   0.0000       2.470509        67.2260 
 295   0.0000       2.479455        67.4694 
 296   0.0000       2.491676        67.8019 
 297   0.0000       2.498193        67.9793 
 298   0.0000       2.511839        68.3506 
 299   0.0000       2.522530        68.6415 
 300   0.0000       2.535334        68.9899 
 301   0.0000       2.554885        69.5220 
 302   0.0000       2.566239        69.8309 
 303   0.0000       2.579854        70.2014 
 304   0.0000       2.588357        70.4328 
 305   0.0000       2.595857        70.6369 
 306   0.0000       2.617114        71.2153 
 307   0.0000       2.637030        71.7572 
 308   0.0000       2.650692        72.1290 
 309   0.0000       2.659172        72.3597 
 310   0.0000       2.677647        72.8625 
 311   0.0000       2.682339        72.9901 
 312   0.0000       2.704401        73.5905 
 313   0.0000       2.730954        74.3130 
 314   0.0000       2.740939        74.5848 
 315   0.0000       2.741577        74.6021 
 316   0.0000       2.766866        75.2903 
 317   0.0000       2.777477        75.5790 
 318   0.0000       2.789376        75.9028 
 319   0.0000       2.789502        75.9062 
 320   0.0000       2.804112        76.3038 
 321   0.0000       2.836984        77.1983 
 322   0.0000       2.839432        77.2649 
 323   0.0000       2.854787        77.6827 
 324   0.0000       2.865742        77.9808 
 325   0.0000       2.881642        78.4135 
 326   0.0000       2.885261        78.5120 
 327   0.0000       2.908637        79.1480 
 328   0.0000       2.918326        79.4117 
 329   0.0000       2.949855        80.2696 
 330   0.0000       2.955969        80.4360 
 331   0.0000       2.961567        80.5883 
 332   0.0000       2.981604        81.1336 
 333   0.0000       3.000711        81.6535 
 334   0.0000       3.018548        82.1389 
 335   0.0000       3.031427        82.4893 
 336   0.0000       3.035109        82.5895 
 337   0.0000       3.057442        83.1972 
 338   0.0000       3.066922        83.4552 
 339   0.0000       3.083413        83.9039 
 340   0.0000       3.092008        84.1378 
 341   0.0000       3.099371        84.3382 
[...]
      0       0.000558   0.000926   0.000847   0.000334  -0.000139   0.000009
      1      -0.000029   0.000179  -0.000197  -0.000190   0.000104  -0.000007
      2       0.000092   0.000146   0.000147   0.000040  -0.000044  -0.000009
      3       0.000141   0.003202   0.000161   0.000195  -0.000093   0.000032
      4      -0.000069  -0.002146   0.000451   0.000329  -0.000166   0.000023
      5       0.000030   0.000677   0.000016   0.000070  -0.000040   0.000008
      6      -0.002237  -0.051433   0.004515  -0.000062   0.000033  -0.000040
      7      -0.002556  -0.067490   0.006351   0.000353  -0.000146   0.000061
      8      -0.000398  -0.007967   0.000700  -0.000016   0.000019  -0.000016
      9      -0.000280  -0.002284   0.001922   0.000850  -0.000284   0.000143
     10       0.000167   0.002160   0.001283   0.000318  -0.000139  -0.000028
     11       0.000034  -0.000535   0.000383  -0.000301   0.000162  -0.000037
     12       0.000924  -0.000483   0.000234   0.000036   0.000066   0.000061
     13      -0.009028  -0.000427  -0.000271   0.000169   0.000249   0.000013
     14       0.002638  -0.000792   0.000423   0.000425  -0.000163  -0.000274
     15       0.066133  -0.002420   0.000417  -0.002888   0.001197   0.000173
     16      -0.060235   0.002095  -0.000298  -0.001436  -0.001975  -0.001452
     17       0.033625  -0.001214   0.000151  -0.001668   0.000766   0.000451
     18      -0.002193  -0.000103   0.000366  -0.052649   0.051134  -0.018203
     19       0.001706  -0.000034   0.000034  -0.009807  -0.046440  -0.044233
     20      -0.000984   0.000004   0.000050  -0.015480  -0.013448   0.064757
     21      -0.002529   0.000157   0.000141  -0.111100  -0.205359   0.336189
     22       0.000639  -0.000071   0.000213  -0.036122  -0.082910   0.105729
     23       0.001230   0.000069  -0.000247   0.227254   0.474981  -0.736446
     24       0.022640   0.001685  -0.005575   0.920143  -0.336956   0.051891
     25      -0.005712   0.000245  -0.000234  -0.061141   0.012194  -0.013429
     26      -0.002348   0.000947  -0.001056   0.089338  -0.036083   0.018726
     27       0.007243  -0.000279   0.000070  -0.071922  -0.167702  -0.136447
     28      -0.016801   0.000827  -0.000880   0.243488   0.714633   0.523768
     29       0.012881  -0.000419   0.000383  -0.088308  -0.256841  -0.174567
     30       0.000846   0.000763   0.016014  -0.000078   0.000068   0.000010
     31      -0.002783   0.001864  -0.037923  -0.000876   0.000216  -0.000121
     32       0.000197   0.000030   0.004555  -0.000440   0.000220  -0.000028
     33       0.001167  -0.005960  -0.048086  -0.000499   0.000180  -0.000013
     34       0.001400  -0.007159  -0.059559  -0.000049   0.000035   0.000001
     35       0.000170  -0.000876  -0.007058  -0.000055   0.000051   0.000018
     36      -0.000071   0.000296  -0.002701  -0.000353   0.000208  -0.000035
     37       0.000100   0.000794   0.002379  -0.000263   0.000110  -0.000010
     38      -0.000016   0.000056  -0.000557  -0.000003   0.000028   0.000005
     39       0.000087  -0.000292   0.000594   0.000220  -0.000145   0.000025
     40      -0.000028  -0.000006  -0.000238  -0.000031   0.000026  -0.000005
     41       0.000020  -0.000062   0.000116   0.000050  -0.000007   0.000012
     42      -0.008802  -0.019769  -0.013134  -0.004504   0.001762  -0.000110
     43       0.000417   0.002453   0.000577   0.000255  -0.000112   0.000020
     44      -0.001539  -0.003470  -0.002274  -0.000790   0.000285  -0.000034
     45       0.023979   0.592822  -0.052929  -0.001476   0.000485  -0.000073
     46       0.031996   0.786333  -0.071411  -0.002348   0.000747  -0.000134
     47       0.003868   0.091784  -0.008237  -0.000266   0.000051  -0.000010
     48      -0.014205   0.002274  -0.002409  -0.000152   0.000764   0.000440
     49       0.086776  -0.004906   0.005216   0.000129  -0.002106  -0.000300
     50      -0.044087   0.002945  -0.002723  -0.000882  -0.000125  -0.001118
     51       0.008700   0.006630  -0.003004  -0.001744   0.000552  -0.000669
     52       0.018657   0.008105  -0.002987  -0.000185   0.001757  -0.000716
     53       0.016283   0.008310  -0.003234   0.000922   0.002260  -0.001273
     54      -0.704810   0.027259  -0.005560   0.026991  -0.013044  -0.000981
     55       0.116209  -0.004450   0.001040  -0.001321   0.002712   0.000708
     56      -0.103206   0.003507  -0.000346   0.009518  -0.003510  -0.000308
     57      -0.080532   0.003178  -0.000272   0.000019  -0.002210  -0.001487
     58       0.599683  -0.021237   0.002850   0.007444   0.019220   0.016412
     59      -0.298271   0.009889  -0.001417  -0.000640  -0.004749  -0.005957
     60      -0.011595   0.005065  -0.158808  -0.001580   0.000044  -0.000247
     61       0.032184  -0.017659   0.426312   0.004473   0.000169   0.000852
     62      -0.003353   0.001849  -0.047773   0.000909  -0.000562  -0.000092
     63      -0.013179   0.067450   0.542121   0.002047  -0.000871   0.000071
     64      -0.016916   0.086444   0.688971   0.002417  -0.000936   0.000077
     65      -0.001757   0.009744   0.078619   0.000285  -0.000074   0.000045
     66      -0.000001  -0.000003   0.000000  -0.000001  -0.000001  -0.000001
     67      -0.000001   0.000001  -0.000002  -0.000003  -0.000002  -0.000002
     68      -0.000002   0.000000  -0.000001  -0.000005  -0.000012  -0.000007
     69      -0.000007  -0.000000  -0.000011  -0.000008   0.000003  -0.000001
     70       0.000001  -0.000010   0.000009   0.000004  -0.000005  -0.000000
     71       0.000000  -0.000000  -0.000000   0.000006   0.000006   0.000002


-----------
IR SPECTRUM
-----------

 Mode   freq       eps      Int      T**2         TX        TY        TZ
       cm**-1   L/(mol*cm) km/mol    a.u.
----------------------------------------------------------------------------
  6:     12.35   0.003745   18.93  0.094629  ( 0.036460 -0.140963  0.270978)
  7:     30.64   0.003171   16.02  0.032298  ( 0.004039  0.178401 -0.021327)
  8:     39.05   0.000096    0.48  0.000765  (-0.005718 -0.014266  0.023000)
  9:     60.30   0.003245   16.40  0.016794  (-0.126545  0.017535 -0.021752)
 10:     88.50   0.002984   15.08  0.010520  (-0.100164  0.017935  0.012867)
 11:    127.87   0.000177    0.89  0.000431  (-0.019302  0.001987 -0.007400)
 12:    138.81   0.001534    7.75  0.003448  ( 0.053641 -0.016719 -0.017057)
 13:    171.81   0.002705   13.67  0.004913  (-0.055302  0.038530  0.019234)
 14:    184.85   0.002201   11.12  0.003716  ( 0.038808 -0.046691 -0.005474)
 15:    228.18   0.004742   23.96  0.006485  (-0.053308  0.025920  0.054508)
 16:    259.94   0.000218    1.10  0.000261  (-0.015709  0.003608 -0.001186)
 17:    275.42   0.003834   19.38  0.004344  ( 0.043689 -0.049214 -0.003683)
 18:    313.54   0.001435    7.25  0.001429  ( 0.000999 -0.014024 -0.035086)
 19:    351.00   0.004722   23.86  0.004199  ( 0.039760  0.013662 -0.049305)
 20:    382.20   0.003512   17.75  0.002868  (-0.018409  0.047089  0.017646)
 21:    433.32   0.003813   19.27  0.002746  (-0.014358 -0.027534  0.042215)
 22:    438.21   0.010074   50.91  0.007174  ( 0.036615 -0.023341 -0.072724)
 23:    451.07   0.000942    4.76  0.000652  ( 0.002225 -0.019261  0.016604)
 24:    503.63   0.007406   37.43  0.004589  (-0.056490  0.037345 -0.001781)
 25:    514.34   0.002261   11.43  0.001372  (-0.028850  0.022426  0.006072)
 26:    599.97   0.002175   10.99  0.001131  ( 0.008659 -0.030164 -0.012099)
 27:    627.00   0.002986   15.09  0.001486  (-0.007962  0.009383 -0.036531)
 28:    697.59   0.003027   15.29  0.001354  (-0.036659  0.002959  0.001132)
 29:    709.89   0.000029    0.15  0.000013  (-0.000265  0.002285  0.002770)
 30:    784.43   0.013091   66.16  0.005208  (-0.001993 -0.005128  0.071955)
 31:    793.95   0.027188  137.40  0.010686  ( 0.083441 -0.060969  0.002567)
 32:    816.18   0.001887    9.53  0.000721  ( 0.011734 -0.014516  0.019311)
 33:    840.80   0.008466   42.78  0.003142  ( 0.026187 -0.013589 -0.047663)
 34:    857.46   0.002777   14.03  0.001011  ( 0.021093 -0.018905 -0.014429)
 35:    879.42   0.000189    0.95  0.000067  ( 0.003426 -0.003865  0.006344)
 36:    910.08   0.003066   15.50  0.001051  ( 0.003428  0.017153 -0.027303)
 37:    939.32   0.003571   18.05  0.001186  ( 0.018149  0.029170 -0.002482)
 38:    996.74   0.005474   27.66  0.001714  ( 0.003474 -0.036439 -0.019335)
 39:   1049.66   0.008833   44.64  0.002626  (-0.041145 -0.002869  0.030414)
 40:   1067.38   0.003422   17.29  0.001000  (-0.028047  0.010212 -0.010464)
 41:   1099.57   0.006160   31.13  0.001748  (-0.037550 -0.018352  0.001154)
 42:   1136.91   0.006132   30.99  0.001683  ( 0.003802 -0.040765 -0.002604)
 43:   1157.16   0.014722   74.40  0.003970  ( 0.016387 -0.060715  0.003907)
 44:   1219.91   0.024297  122.79  0.006215  (-0.038159  0.068937  0.002624)
 45:   1221.96   0.008157   41.22  0.002083  ( 0.027764  0.033608 -0.013518)
 46:   1253.24   0.000672    3.39  0.000167  ( 0.002846 -0.011969 -0.003985)
 47:   1285.94   0.000679    3.43  0.000165  (-0.008606 -0.008175  0.004898)
 48:   1291.62   0.227410  1149.24  0.054944  ( 0.203641 -0.111859  0.031011)
 49:   1318.49   0.012832   64.85  0.003037  (-0.039170  0.036622 -0.012713)
 50:   1337.28   0.010879   54.98  0.002539  (-0.043309 -0.025737  0.000773)
 51:   1349.24   0.006085   30.75  0.001407  ( 0.017348 -0.026004 -0.020740)
 52:   1411.26   0.002636   13.32  0.000583  ( 0.010135 -0.000620 -0.021902)
 53:   1435.04   0.005074   25.64  0.001103  (-0.013025  0.006148  0.029931)
 54:   1439.59   0.002863   14.47  0.000621  (-0.018672  0.002916 -0.016231)
 55:   1450.81   0.036366  183.78  0.007822  ( 0.003420  0.064934  0.059950)
 56:   1477.10   0.148510  750.51  0.031375  ( 0.156432 -0.077671  0.029525)
 57:   1535.84   0.004317   21.81  0.000877  ( 0.012520 -0.026735 -0.002358)
 58:   1581.11   0.010871   54.94  0.002146  ( 0.010810  0.029827 -0.033751)
 59:   1590.43   0.008378   42.34  0.001644  (-0.035809  0.003459 -0.018700)
 60:   1596.03   0.015355   77.60  0.003002  ( 0.052180 -0.008141 -0.014600)
 61:   2973.64   0.009737   49.21  0.001022  (-0.024857  0.011730 -0.016323)
 62:   3017.52   0.000825    4.17  0.000085  ( 0.002175 -0.006883 -0.005765)
 63:   3029.00   0.006326   31.97  0.000652  (-0.020711 -0.014779  0.002096)
 64:   3059.42   0.419286  2118.90  0.042768  (-0.203199  0.028569 -0.025718)
 65:   3079.32   0.007016   35.46  0.000711  (-0.023274  0.012137 -0.004691)
 66:   3082.66   0.003006   15.19  0.000304  ( 0.013996 -0.009902  0.003217)
 67:   3084.89   0.005659   28.60  0.000572  (-0.017800 -0.015675 -0.003141)
 68:   3099.46   0.005317   26.87  0.000535  (-0.011625 -0.020001 -0.000294)
 69:   3290.02   0.028866  145.88  0.002738  ( 0.051677 -0.006429 -0.005113)
 70:   3387.85   0.037938  191.73  0.003495  (-0.043360  0.035719  0.018402)
 71:   3431.03   0.028238  142.70  0.002568  ( 0.012995  0.025853 -0.041607)

* The epsilon (eps) is given for a Dirac delta lineshape.
** The dipole moment derivative (T) already includes vibrational overlap.

The first frequency considered to be a vibration is 6
The total number of vibrations considered is 66


--------------------------
THERMOCHEMISTRY AT 298.15K
--------------------------

Temperature         ... 298.15 K
Pressure            ... 1.00 atm
Total Mass          ... 280.28 AMU

Throughout the following assumptions are being made:
  (1) The electronic state is orbitally nondegenerate
  (2) There are no thermally accessible electronically excited states
  (3) Hindered rotations indicated by low frequency modes are not
      treated as such but are treated as vibrations and this may
      cause some error
  (4) All equations used are the standard statistical mechanics
      equations for an ideal gas
  (5) All vibrations are strictly harmonic

freq.      12.35  E(vib)   ...       0.58 
freq.      30.64  E(vib)   ...       0.55 
freq.      39.05  E(vib)   ...       0.54 
freq.      60.30  E(vib)   ...       0.51 
freq.      88.50  E(vib)   ...       0.47 
freq.     127.87  E(vib)   ...       0.43 
freq.     138.81  E(vib)   ...       0.42 
freq.     171.81  E(vib)   ...       0.38 
freq.     184.85  E(vib)   ...       0.37 
freq.     228.18  E(vib)   ...       0.32 
freq.     259.94  E(vib)   ...       0.30 
freq.     275.42  E(vib)   ...       0.28 
freq.     313.54  E(vib)   ...       0.25 
freq.     351.00  E(vib)   ...       0.23 
freq.     382.20  E(vib)   ...       0.21 
freq.     433.32  E(vib)   ...       0.17 
freq.     438.21  E(vib)   ...       0.17 
freq.     451.07  E(vib)   ...       0.16 
freq.     503.63  E(vib)   ...       0.14 
freq.     514.34  E(vib)   ...       0.13 
freq.     599.97  E(vib)   ...       0.10 
freq.     627.00  E(vib)   ...       0.09 
freq.     697.59  E(vib)   ...       0.07 
freq.     709.89  E(vib)   ...       0.07 
freq.     784.43  E(vib)   ...       0.05 
freq.     793.95  E(vib)   ...       0.05 
freq.     816.18  E(vib)   ...       0.05 
freq.     840.80  E(vib)   ...       0.04 
freq.     857.46  E(vib)   ...       0.04 
freq.     879.42  E(vib)   ...       0.04 
freq.     910.08  E(vib)   ...       0.03 
freq.     939.32  E(vib)   ...       0.03 
freq.     996.74  E(vib)   ...       0.02 
freq.    1049.66  E(vib)   ...       0.02 
freq.    1067.38  E(vib)   ...       0.02 
freq.    1099.57  E(vib)   ...       0.02 
freq.    1136.91  E(vib)   ...       0.01 
freq.    1157.16  E(vib)   ...       0.01 
freq.    1219.91  E(vib)   ...       0.01 
freq.    1221.96  E(vib)   ...       0.01 
freq.    1253.24  E(vib)   ...       0.01 
freq.    1285.94  E(vib)   ...       0.01 
freq.    1291.62  E(vib)   ...       0.01 
freq.    1318.49  E(vib)   ...       0.01 
freq.    1337.28  E(vib)   ...       0.01 
freq.    1349.24  E(vib)   ...       0.01 
freq.    1411.26  E(vib)   ...       0.00 
freq.    1435.04  E(vib)   ...       0.00 
freq.    1439.59  E(vib)   ...       0.00 
freq.    1450.81  E(vib)   ...       0.00 
freq.    1477.10  E(vib)   ...       0.00 
freq.    1535.84  E(vib)   ...       0.00 
freq.    1581.11  E(vib)   ...       0.00 
freq.    1590.43  E(vib)   ...       0.00 
freq.    1596.03  E(vib)   ...       0.00 
freq.    2973.64  E(vib)   ...       0.00 
freq.    3017.52  E(vib)   ...       0.00 
freq.    3029.00  E(vib)   ...       0.00 
freq.    3059.42  E(vib)   ...       0.00 
freq.    3079.32  E(vib)   ...       0.00 
freq.    3082.66  E(vib)   ...       0.00 
freq.    3084.89  E(vib)   ...       0.00 
freq.    3099.46  E(vib)   ...       0.00 
freq.    3290.02  E(vib)   ...       0.00 
freq.    3387.85  E(vib)   ...       0.00 
freq.    3431.03  E(vib)   ...       0.00 

------------
INNER ENERGY
------------

The inner energy is: U= E(el) + E(ZPE) + E(vib) + E(rot) + E(trans)
    E(el)   - is the total energy from the electronic structure calculation
              = E(kin-el) + E(nuc-el) + E(el-el) + E(nuc-nuc)
    E(ZPE)  - the the zero temperature vibrational energy from the frequency calculation
    E(vib)  - the the finite temperature correction to E(ZPE) due to population
              of excited vibrational states
    E(rot)  - is the rotational thermal energy
    E(trans)- is the translational thermal energy

Summary of contributions to the inner energy U:
Electronic energy                ...  -3796.90071449 Eh
Zero point energy                ...      0.18065469 Eh     113.36 kcal/mol
Thermal vibrational correction   ...      0.01189935 Eh       7.47 kcal/mol
Thermal rotational correction    ...      0.00141627 Eh       0.89 kcal/mol
Thermal translational correction ...      0.00141627 Eh       0.89 kcal/mol
-----------------------------------------------------------------------
Total thermal energy                  -3796.70532791 Eh


Summary of corrections to the electronic energy:
(perhaps to be used in another calculation)
Total thermal correction                  0.01473189 Eh       9.24 kcal/mol
Non-thermal (ZPE) correction              0.18065469 Eh     113.36 kcal/mol
-----------------------------------------------------------------------
Total correction                          0.19538659 Eh     122.61 kcal/mol


--------
ENTHALPY
--------

The enthalpy is H = U + kB*T
                kB is Boltzmann's constant
Total free energy                 ...  -3796.70532791 Eh 
Thermal Enthalpy correction       ...      0.00094421 Eh       0.59 kcal/mol
-----------------------------------------------------------------------
Total Enthalpy                    ...  -3796.70438370 Eh


Note: Only C1 symmetry has been detected, increase convergence thresholds 
      if your molecule has a higher symmetry. Symmetry factor of 1.0 is   
      used for the rotational entropy correction. 
 

Note: Rotational entropy computed according to Herzberg 
Infrared and Raman Spectra, Chapter V,1, Van Nostrand Reinhold, 1945 
Point Group:  C1, Symmetry Number:   1  
Rotational constants in cm-1:     0.054438     0.005404     0.005138 

Vibrational entropy computed according to the QRRHO of S. Grimme
Chem.Eur.J. 2012 18 9955


-------
ENTROPY
-------

The entropy contributions are T*S = T*(S(el)+S(vib)+S(rot)+S(trans))
     S(el)   - electronic entropy
     S(vib)  - vibrational entropy
     S(rot)  - rotational entropy
     S(trans)- translational entropy
The entropies will be listed as multiplied by the temperature to get
units of energy

Electronic entropy                ...      0.00000000 Eh      0.00 kcal/mol
Vibrational entropy               ...      0.02179679 Eh     13.68 kcal/mol
Rotational entropy                ...      0.01583801 Eh      9.94 kcal/mol
Translational entropy             ...      0.02033088 Eh     12.76 kcal/mol
-----------------------------------------------------------------------
Final entropy term                ...      0.05796569 Eh     36.37 kcal/mol

In case the symmetry of your molecule has not been determined correctly
or in case you have a reason to use a different symmetry number we print 
out the resulting rotational entropy values for sn=1,12 :
 --------------------------------------------------------
|  sn= 1 | S(rot)=       0.01583801 Eh      9.94 kcal/mol|
|  sn= 2 | S(rot)=       0.01518355 Eh      9.53 kcal/mol|
|  sn= 3 | S(rot)=       0.01480072 Eh      9.29 kcal/mol|
|  sn= 4 | S(rot)=       0.01452910 Eh      9.12 kcal/mol|
|  sn= 5 | S(rot)=       0.01431841 Eh      8.98 kcal/mol|
|  sn= 6 | S(rot)=       0.01414626 Eh      8.88 kcal/mol|
|  sn= 7 | S(rot)=       0.01400072 Eh      8.79 kcal/mol|
|  sn= 8 | S(rot)=       0.01387464 Eh      8.71 kcal/mol|
|  sn= 9 | S(rot)=       0.01376343 Eh      8.64 kcal/mol|
|  sn=10 | S(rot)=       0.01366395 Eh      8.57 kcal/mol|
|  sn=11 | S(rot)=       0.01357396 Eh      8.52 kcal/mol|
|  sn=12 | S(rot)=       0.01349181 Eh      8.47 kcal/mol|
 --------------------------------------------------------


-------------------
GIBBS FREE ENERGY
-------------------

The Gibbs free energy is G = H - T*S

Total enthalpy                    ...  -3796.70438370 Eh 
Total entropy correction          ...     -0.05796569 Eh    -36.37 kcal/mol
-----------------------------------------------------------------------
Final Gibbs free energy         ...  -3796.76234938 Eh

For completeness - the Gibbs free energy minus the electronic energy
G-E(el)                           ...      0.13836511 Eh     86.83 kcal/mol



Timings for individual modules:

Sum of individual times         ...     1688.728 sec (=  28.145 min)
GTO integral calculation        ...        4.893 sec (=   0.082 min)   0.3 %
SCF iterations                  ...       60.969 sec (=   1.016 min)   3.6 %
SCF Gradient evaluation         ...       15.109 sec (=   0.252 min)   0.9 %
Geometry relaxation             ...        0.088 sec (=   0.001 min)   0.0 %
Numerical frequency calculation ...     1607.668 sec (=  26.794 min)  95.2 %



                             ****ORCA TERMINATED NORMALLY****
TOTAL RUN TIME: 0 days 2 hours 24 minutes 57 seconds 384 msec
