
                                 *****************
                                 * O   R   C   A *
                                 *****************

                                            #,                                       
                                            ###                                      
                                            ####                                     
                                            #####                                    
                                            ######                                   
                                           ########,                                 
                                     ,,################,,,,,                         
                               ,,#################################,,                 
                          ,,##########################################,,             
                       ,#########################################, ''#####,          
                    ,#############################################,,   '####,        
                  ,##################################################,,,,####,       
                ,###########''''           ''''###############################       
              ,#####''   ,,,,##########,,,,          '''####'''          '####       
            ,##' ,,,,###########################,,,                        '##       
           ' ,,###''''                  '''############,,,                           
         ,,##''                                '''############,,,,        ,,,,,,###''
      ,#''                                            '''#######################'''  
     '                                                          ''''####''''         
             ,#######,   #######,   ,#######,      ##                                
            ,#'     '#,  ##    ##  ,#'     '#,    #''#        ######   ,####,        
            ##       ##  ##   ,#'  ##            #'  '#       #        #'  '#        
            ##       ##  #######   ##           ,######,      #####,   #    #        
            '#,     ,#'  ##    ##  '#,     ,#' ,#      #,         ##   #,  ,#        
             '#######'   ##     ##  '#######'  #'      '#     #####' # '####'        



                  #######################################################
                  #                        -***-                        #
                  #          Department of theory and spectroscopy      #
                  #    Directorship and core code : Frank Neese         #
                  #        Max Planck Institute fuer Kohlenforschung    #
                  #                Kaiser Wilhelm Platz 1               #
                  #                 D-45470 Muelheim/Ruhr               #
                  #                      Germany                        #
                  #                                                     #
                  #                  All rights reserved                #
                  #                        -***-                        #
                  #######################################################


                         Program Version 5.0.1 -  RELEASE  -


 With contributions from (in alphabetic order):
   Daniel Aravena         : Magnetic Suceptibility
   Michael Atanasov       : Ab Initio Ligand Field Theory (pilot matlab implementation)
   Alexander A. Auer      : GIAO ZORA, VPT2 properties, NMR spectrum
   Ute Becker             : Parallelization
   Giovanni Bistoni       : ED, misc. LED, open-shell LED, HFLD
   Martin Brehm           : Molecular dynamics
   Dmytro Bykov           : SCF Hessian
   Vijay G. Chilkuri      : MRCI spin determinant printing, contributions to CSF-ICE
   Dipayan Datta          : RHF DLPNO-CCSD density
   Achintya Kumar Dutta   : EOM-CC, STEOM-CC
   Dmitry Ganyushin       : Spin-Orbit,Spin-Spin,Magnetic field MRCI
   Miquel Garcia          : C-PCM and meta-GGA Hessian, CC/C-PCM, Gaussian charge scheme
   Yang Guo               : DLPNO-NEVPT2, F12-NEVPT2, CIM, IAO-localization
   Andreas Hansen         : Spin unrestricted coupled pair/coupled cluster methods
   Benjamin Helmich-Paris : MC-RPA, TRAH-SCF, COSX integrals
   Lee Huntington         : MR-EOM, pCC
   Robert Izsak           : Overlap fitted RIJCOSX, COSX-SCS-MP3, EOM
   Marcus Kettner         : VPT2
   Christian Kollmar      : KDIIS, OOCD, Brueckner-CCSD(T), CCSD density, CASPT2, CASPT2-K
   Simone Kossmann        : Meta GGA functionals, TD-DFT gradient, OOMP2, MP2 Hessian
   Martin Krupicka        : Initial AUTO-CI
   Lucas Lang             : DCDCAS
   Marvin Lechner         : AUTO-CI (C++ implementation), FIC-MRCC
   Dagmar Lenk            : GEPOL surface, SMD
   Dimitrios Liakos       : Extrapolation schemes; Compound Job, initial MDCI parallelization
   Dimitrios Manganas     : Further ROCIS development; embedding schemes
   Dimitrios Pantazis     : SARC Basis sets
   Anastasios Papadopoulos: AUTO-CI, single reference methods and gradients
   Taras Petrenko         : DFT Hessian,TD-DFT gradient, ASA, ECA, R-Raman, ABS, FL, XAS/XES, NRVS
   Peter Pinski           : DLPNO-MP2, DLPNO-MP2 Gradient
   Christoph Reimann      : Effective Core Potentials
   Marius Retegan         : Local ZFS, SOC
   Christoph Riplinger    : Optimizer, TS searches, QM/MM, DLPNO-CCSD(T), (RO)-DLPNO pert. Triples
   Tobias Risthaus        : Range-separated hybrids, TD-DFT gradient, RPA, STAB
   Michael Roemelt        : Original ROCIS implementation
   Masaaki Saitow         : Open-shell DLPNO-CCSD energy and density
   Barbara Sandhoefer     : DKH picture change effects
   Avijit Sen             : IP-ROCIS
   Kantharuban Sivalingam : CASSCF convergence, NEVPT2, FIC-MRCI
   Bernardo de Souza      : ESD, SOC TD-DFT
   Georgi Stoychev        : AutoAux, RI-MP2 NMR, DLPNO-MP2 response
   Willem Van den Heuvel  : Paramagnetic NMR
   Boris Wezisla          : Elementary symmetry handling
   Frank Wennmohs         : Technical directorship


 We gratefully acknowledge several colleagues who have allowed us to
 interface, adapt or use parts of their codes:
   Stefan Grimme, W. Hujo, H. Kruse, P. Pracht,  : VdW corrections, initial TS optimization,
                  C. Bannwarth, S. Ehlert          DFT functionals, gCP, sTDA/sTD-DF
   Ed Valeev, F. Pavosevic, A. Kumar             : LibInt (2-el integral package), F12 methods
   Garnet Chan, S. Sharma, J. Yang, R. Olivares  : DMRG
   Ulf Ekstrom                                   : XCFun DFT Library
   Mihaly Kallay                                 : mrcc  (arbitrary order and MRCC methods)
   Jiri Pittner, Ondrej Demel                    : Mk-CCSD
   Frank Weinhold                                : gennbo (NPA and NBO analysis)
   Christopher J. Cramer and Donald G. Truhlar   : smd solvation model
   Lars Goerigk                                  : TD-DFT with DH, B97 family of functionals
   V. Asgeirsson, H. Jonsson                     : NEB implementation
   FAccTs GmbH                                   : IRC, NEB, NEB-TS, DLPNO-Multilevel, CI-OPT
                                                   MM, QMMM, 2- and 3-layer-ONIOM, Crystal-QMMM,
                                                   LR-CPCM, SF, NACMEs, symmetry and pop. for TD-DFT,
                                                   nearIR, NL-DFT gradient (VV10), updates on ESD,
                                                   ML-optimized integration grids
   S Lehtola, MJT Oliveira, MAL Marques          : LibXC Library
   Liviu Ungur et al                             : ANISO software


 Your calculation uses the libint2 library for the computation of 2-el integrals
 For citations please refer to: http://libint.valeyev.net

 Your ORCA version has been built with support for libXC version: 5.1.0
 For citations please refer to: https://tddft.org/programs/libxc/

 This ORCA versions uses:
   CBLAS   interface :  Fast vector & matrix operations
   LAPACKE interface :  Fast linear algebra routines
   SCALAPACK package :  Parallel linear algebra routines
   Shared memory     :  Shared parallel matrices
   BLAS/LAPACK       :  OpenBLAS 0.3.15  USE64BITINT DYNAMIC_ARCH NO_AFFINITY Haswell SINGLE_THREADED
        Core in use  :  Haswell
   Copyright (c) 2011-2014, The OpenBLAS Project


Your calculation utilizes the atom-pairwise dispersion correction
with the Becke-Johnson damping scheme (D3BJ)
Cite in your paper:
S.Grimme, S.Ehrlich, L.Goerigk, J Comput Chem, (2011), 32, 1456–1465 
S.Grimme, J.Antony, S.Ehrlich and H.Krieg, J.Chem.Phys., 132, (2010), 154104 
   

================================================================================

----- Orbital basis set information -----
Your calculation utilizes the basis: def2-TZVP
   F. Weigend and R. Ahlrichs, Phys. Chem. Chem. Phys. 7, 3297 (2005).

----- AuxJ basis set information -----
Your calculation utilizes the auxiliary basis: def2/J
   F. Weigend, Phys. Chem. Chem. Phys. 8, 1057 (2006).

================================================================================
                                        WARNINGS
                       Please study these warnings very carefully!
================================================================================


WARNING: Geometry Optimization
  ===> : Switching off AutoStart
         For restart on a previous wavefunction, please use MOREAD

INFO   : the flag for use of the SHARK integral package has been found!

Your calculation utilizes the atom-pairwise dispersion correction
with the Becke-Johnson damping scheme (D3BJ)
Cite in your paper:
S.Grimme, S.Ehrlich, L.Goerigk, J Comput Chem, (2011), 32, 1456–1465 
S.Grimme, J.Antony, S.Ehrlich and H.Krieg, J.Chem.Phys., 132, (2010), 154104 
   

================================================================================

----- Orbital basis set information -----
Your calculation utilizes the basis: def2-SVP
   F. Weigend and R. Ahlrichs, Phys. Chem. Chem. Phys. 7, 3297 (2005).

================================================================================
                                        WARNINGS
                       Please study these warnings very carefully!
================================================================================


INFO   : the flag for use of the SHARK integral package has been found!

Your calculation utilizes the atom-pairwise dispersion correction
with the Becke-Johnson damping scheme (D3BJ)
Cite in your paper:
S.Grimme, S.Ehrlich, L.Goerigk, J Comput Chem, (2011), 32, 1456–1465 
S.Grimme, J.Antony, S.Ehrlich and H.Krieg, J.Chem.Phys., 132, (2010), 154104 
   

================================================================================

----- Orbital basis set information -----
Your calculation utilizes the basis: def2-SVP
   F. Weigend and R. Ahlrichs, Phys. Chem. Chem. Phys. 7, 3297 (2005).

================================================================================
                                        WARNINGS
                       Please study these warnings very carefully!
================================================================================


INFO   : the flag for use of the SHARK integral package has been found!

Your calculation utilizes the atom-pairwise dispersion correction
with the Becke-Johnson damping scheme (D3BJ)
Cite in your paper:
S.Grimme, S.Ehrlich, L.Goerigk, J Comput Chem, (2011), 32, 1456–1465 
S.Grimme, J.Antony, S.Ehrlich and H.Krieg, J.Chem.Phys., 132, (2010), 154104 
   

================================================================================

----- Orbital basis set information -----
Your calculation utilizes the basis: def2-SVP
   F. Weigend and R. Ahlrichs, Phys. Chem. Chem. Phys. 7, 3297 (2005).

================================================================================
                                        WARNINGS
                       Please study these warnings very carefully!
================================================================================


INFO   : the flag for use of the SHARK integral package has been found!

Your calculation utilizes the atom-pairwise dispersion correction
with the Becke-Johnson damping scheme (D3BJ)
Cite in your paper:
S.Grimme, S.Ehrlich, L.Goerigk, J Comput Chem, (2011), 32, 1456–1465 
S.Grimme, J.Antony, S.Ehrlich and H.Krieg, J.Chem.Phys., 132, (2010), 154104 
   

================================================================================

----- Orbital basis set information -----
Your calculation utilizes the basis: def2-SVP
   F. Weigend and R. Ahlrichs, Phys. Chem. Chem. Phys. 7, 3297 (2005).

================================================================================
                                        WARNINGS
                       Please study these warnings very carefully!
================================================================================


INFO   : the flag for use of the SHARK integral package has been found!

================================================================================
                                       INPUT FILE
================================================================================
NAME = ex.inp
|  1> ! PBE D3 def2-TZVP opt 
|  2> 
|  3> %base "M0001"
|  4> %pal nprocs=8 end
|  5> %geom maxiter=75 end
|  6> * xyz 1 1
|  7> C       -1.224823     -1.587242      0.220921
|  8> C       -0.017892      0.791629     -0.642482
|  9> C       -1.950120     -0.403966      0.185336
| 10> C        0.121085     -1.577659     -0.164105
| 11> C        0.736243     -0.388929     -0.594533
| 12> C       -1.345335      0.773733     -0.239305
| 13> O       -3.261213     -0.341801      0.559007
| 14> O       -2.048891      1.941679     -0.258944
| 15> C        2.199890     -0.366462     -0.959628
| 16> C        3.105051     -0.278056      0.271559
| 17> N        2.816475      0.949776      1.061500
| 18> H        1.843695      0.946388      1.405002
| 19> H        3.427806      1.024026      1.884278
| 20> H        2.935367      1.805323      0.503860
| 21> H       -1.684210     -2.518465      0.541070
| 22> H        0.403518      1.727905     -0.999767
| 23> H        0.676081     -2.514793     -0.137679
| 24> H       -3.584019     -1.243249      0.736823
| 25> H       -2.961362      1.693307     -0.000448
| 26> H        2.402267      0.475666     -1.633564
| 27> H        2.443113     -1.272673     -1.527915
| 28> H        2.960421     -1.124636      0.950005
| 29> H        4.158241     -0.224542     -0.019249
| 30> *
| 31> 
| 32> $new_job
| 33> 
| 34> %base "M0002"
| 35> %pal nprocs=8 end
| 36> %geom maxiter=75 end
| 37> * xyz 1 1
| 38> C        1.293053      1.584692     -0.120584
| 39> C       -0.021154     -0.796401      0.558269
| 40> C        1.972497      0.375150     -0.152591
| 41> C       -0.060079      1.600914      0.239173
| 42> C       -0.734320      0.410591      0.567578
| 43> C        1.315328     -0.802827      0.182827
| 44> O        3.288363      0.287570     -0.503222
| 45> O        1.976877     -1.994795      0.146051
| 46> C       -2.198861      0.441011      0.936665
| 47> C       -3.064327     -0.516537      0.110481
| 48> N       -2.877334     -0.277120     -1.346384
| 49> H       -1.895440     -0.437300     -1.619560
| 50> H       -3.455176     -0.913388     -1.910094
| 51> H       -3.113406      0.686489     -1.613784
| 52> H        1.794400      2.517452     -0.364044
| 53> H       -0.476087     -1.739036      0.852323
| 54> H       -0.573714      2.561196      0.274344
| 55> H        3.649250      1.185516     -0.611564
| 56> H        2.902090     -1.766172     -0.082955
| 57> H       -2.589913      1.459076      0.813909
| 58> H       -2.297332      0.197279      2.001363
| 59> H       -2.811007     -1.565910      0.287992
| 60> H       -4.127075     -0.367127      0.323228
| 61> *
| 62> 
| 63> $new_job
| 64> 
| 65> %base "M0003"
| 66> %pal nprocs=8 end
| 67> %geom maxiter=75 end
| 68> * xyz 1 1
| 69> C       -1.052971     -1.610853      0.227945
| 70> C       -0.155273      1.042331      0.386444
| 71> C       -1.900177     -0.558785     -0.082300
| 72> C        0.259072     -1.340029      0.616835
| 73> C        0.724848     -0.014189      0.680298
| 74> C       -1.463991      0.758846      0.008962
| 75> O       -3.176831     -0.835219     -0.472397
| 76> O       -2.360382      1.743253     -0.293590
| 77> C        2.170086      0.262382      1.019243
| 78> C        2.996341      0.642764     -0.212947
| 79> N        2.935393     -0.424039     -1.248695
| 80> H        1.964776     -0.577324     -1.563597
| 81> H        3.486702     -0.176057     -2.080253
| 82> H        3.285887     -1.324531     -0.898185
| 83> H       -1.421674     -2.632627      0.179154
| 84> H        0.177729      2.074669      0.454029
| 85> H        0.901714     -2.178378      0.880389
| 86> H       -3.606289      0.034991     -0.597921
| 87> H       -2.015948      2.601366      0.008641
| 88> H        2.614505     -0.615261      1.505430
| 89> H        2.216246      1.073063      1.756708
| 90> H        2.627447      1.556893     -0.688467
| 91> H        4.051243      0.772409      0.045956
| 92> *
| 93> 
| 94> $new_job
| 95> 
| 96> %base "M0004"
| 97> %pal nprocs=8 end
| 98> %geom maxiter=75 end
| 99> * xyz 1 1
|100> C       -1.005565     -1.624533      0.076505
|101> C       -0.194514      1.030187      0.473013
|102> C       -1.891116     -0.578507     -0.127987
|103> C        0.301543     -1.346076      0.477730
|104> C        0.727069     -0.016785      0.653406
|105> C       -1.498063      0.738452      0.083514
|106> O       -3.162476     -0.861137     -0.530289
|107> O       -2.430165      1.716300     -0.114208
|108> C        2.161865      0.284862      1.018629
|109> C        3.166381     -0.209158     -0.028304
|110> N        2.839541      0.330817     -1.376333
|111> H        2.849026      1.358122     -1.396175
|112> H        3.503354     -0.003076     -2.086928
|113> H        1.899330      0.028491     -1.675538
|114> H       -1.340000     -2.649822     -0.062740
|115> H        0.101357      2.063126      0.636350
|116> H        0.971161     -2.184901      0.660773
|117> H       -3.622842      0.001218     -0.570328
|118> H       -2.123450      2.544319      0.294236
|119> H        2.384223     -0.177173      1.988098
|120> H        2.292698      1.365763      1.155292
|121> H        4.180086      0.125506      0.210995
|122> H        3.163797     -1.299249     -0.122765
|123> *
|124> 
|125> $new_job
|126> 
|127> %base "M0005"
|128> %pal nprocs=8 end
|129> %geom maxiter=75 end
|130> * xyz 1 1
|131> C       -1.447298     -1.576422     -0.061973
|132> C       -0.169383      0.884365      0.349737
|133> C       -2.169412     -0.391810     -0.118145
|134> C       -0.072080     -1.529517      0.197274
|135> C        0.578034     -0.300566      0.405171
|136> C       -1.530497      0.826281      0.084998
|137> O       -3.511232     -0.368283     -0.369633
|138> O       -2.237172      1.991738      0.025145
|139> C        2.060437     -0.243537      0.661100
|140> C        2.818311      0.182206     -0.594606
|141> N        4.274374      0.267683     -0.306472
|142> H        4.660055     -0.636004     -0.002273
|143> H        4.794889      0.555021     -1.146349
|144> H        4.476642      0.960680      0.426877
|145> H       -1.931280     -2.536898     -0.214013
|146> H        0.285365      1.857301      0.516584
|147> H        0.478661     -2.467543      0.242972
|148> H       -3.833228     -1.283417     -0.448416
|149> H       -3.161473      1.716606     -0.147217
|150> H        2.419916     -1.221713      1.004746
|151> H        2.255936      0.456752      1.483363
|152> H        2.699168     -0.540426     -1.408302
|153> H        2.513296      1.172218     -0.948103
|154> *
|155> 
|156> 
|157> 
|158> 
|159>                          ****END OF INPUT****
================================================================================


                 $$$$$$$$$$$$$$$$$$$$$$$$$$$$$$$$$$$$$$$$$$$$$$ 
                 $ THERE ARE  5 JOBS TO BE PROCESSED THIS RUN $
                 $$$$$$$$$$$$$$$$$$$$$$$$$$$$$$$$$$$$$$$$$$$$$$ 




                 $$$$$$$$$$$$$$$$  JOB NUMBER  1 $$$$$$$$$$$$$$


                       *****************************
                       * Geometry Optimization Run *
                       *****************************

Geometry optimization settings:
Update method            Update   .... BFGS
Choice of coordinates    CoordSys .... Z-matrix Internals
Initial Hessian          InHess   .... Almoef's Model

Convergence Tolerances:
Energy Change            TolE     ....  5.0000e-06 Eh
Max. Gradient            TolMAXG  ....  3.0000e-04 Eh/bohr
RMS Gradient             TolRMSG  ....  1.0000e-04 Eh/bohr
Max. Displacement        TolMAXD  ....  4.0000e-03 bohr
RMS Displacement         TolRMSD  ....  2.0000e-03 bohr
Strict Convergence                ....  False
------------------------------------------------------------------------------
                        ORCA OPTIMIZATION COORDINATE SETUP
------------------------------------------------------------------------------

The optimization will be done in new redundant internal coordinates
Making redundant internal coordinates   ...  (new redundants) done
Evaluating the initial hessian          ...  (Almloef) done
Evaluating the coordinates              ...  done
Calculating the B-matrix                .... done
Calculating the G-matrix                .... done
Diagonalizing the G-matrix              .... done
Small eigenvalue found = 1.301e-02
The first mode is                       ....   50
The number of degrees of freedom        ....   63

    -----------------------------------------------------------------
                    Redundant Internal Coordinates


    -----------------------------------------------------------------
         Definition                    Initial Value    Approx d2E/dq
    -----------------------------------------------------------------
      1. B(C   2,C   0)                  1.3883         0.628638   
      2. B(C   3,C   0)                  1.3999         0.602414   
      3. B(C   4,C   3)                  1.4060         0.589184   
      4. B(C   4,C   1)                  1.4017         0.598532   
      5. B(C   5,C   2)                  1.3903         0.624005   
      6. B(C   5,C   1)                  1.3874         0.630711   
      7. B(O   6,C   2)                  1.3647         0.614057   
      8. B(O   7,C   5)                  1.3636         0.616530   
      9. B(C   8,C   4)                  1.5087         0.404036   
     10. B(C   9,C   8)                  1.5307         0.372655   
     11. B(N  10,C   9)                  1.4882         0.390069   
     12. B(H  11,N  10)                  1.0317         0.399623   
     13. B(H  12,N  10)                  1.0277         0.405442   
     14. B(H  13,N  10)                  1.0281         0.404822   
     15. B(H  14,C   0)                  1.0866         0.364621   
     16. B(H  15,C   1)                  1.0871         0.363917   
     17. B(H  16,C   3)                  1.0895         0.360805   
     18. B(H  17,O   6)                  0.9739         0.494119   
     19. B(H  18,O   7)                  0.9804         0.482479   
     20. B(H  19,C   8)                  1.0974         0.350420   
     21. B(H  20,C   8)                  1.0970         0.351007   
     22. B(H  21,C   9)                  1.0945         0.354211   
     23. B(H  22,C   9)                  1.0939         0.354963   
     24. A(C   3,C   0,H  14)          119.5616         0.351937   
     25. A(C   2,C   0,C   3)          119.2998         0.432901   
     26. A(C   2,C   0,H  14)          121.1386         0.354485   
     27. A(C   4,C   1,H  15)          121.8741         0.351438   
     28. A(C   5,C   1,H  15)          118.5213         0.354567   
     29. A(C   4,C   1,C   5)          119.6005         0.432654   
     30. A(C   0,C   2,C   5)          120.1672         0.435653   
     31. A(C   0,C   2,O   6)          122.2558         0.431552   
     32. A(C   5,C   2,O   6)          117.5769         0.430979   
     33. A(C   0,C   3,H  16)          118.5028         0.351312   
     34. A(C   0,C   3,C   4)          120.7060         0.427893   
     35. A(C   4,C   3,H  16)          120.7841         0.349997   
     36. A(C   3,C   4,C   8)          120.7407         0.398598   
     37. A(C   1,C   4,C   8)          120.0757         0.399703   
     38. A(C   1,C   4,C   3)          119.1549         0.427397   
     39. A(C   1,C   5,C   2)          121.0549         0.435911   
     40. A(C   2,C   5,O   7)          120.3626         0.431291   
     41. A(C   1,C   5,O   7)          118.5812         0.432120   
     42. A(C   2,O   6,H  17)          109.0426         0.366287   
     43. A(C   5,O   7,H  18)          105.0360         0.365046   
     44. A(C   9,C   8,H  19)          109.9125         0.322741   
     45. A(C   4,C   8,H  19)          109.8130         0.327058   
     46. A(C   4,C   8,C   9)          112.3284         0.368107   
     47. A(C   4,C   8,H  20)          109.1580         0.327148   
     48. A(H  19,C   8,H  20)          105.9562         0.288440   
     49. A(C   9,C   8,H  20)          109.4687         0.322830   
     50. A(C   8,C   9,N  10)          111.0954         0.363615   
     51. A(H  21,C   9,H  22)          109.2599         0.289435   
     52. A(N  10,C   9,H  22)          106.7043         0.323911   
     53. A(C   8,C   9,H  22)          110.9978         0.323424   
     54. A(N  10,C   9,H  21)          106.4695         0.323798   
     55. A(C   8,C   9,H  21)          112.0723         0.323312   
     56. A(C   9,N  10,H  11)          110.9077         0.327485   
     57. A(H  12,N  10,H  13)          107.7772         0.296965   
     58. A(H  11,N  10,H  13)          106.9996         0.296285   
     59. A(C   9,N  10,H  13)          112.0997         0.328184   
     60. A(H  11,N  10,H  12)          107.1317         0.296357   
     61. A(C   9,N  10,H  12)          111.6667         0.328267   
     62. D(O   6,C   2,C   0,C   3)   -179.3802         0.027393   
     63. D(O   6,C   2,C   0,H  14)      0.6816         0.027393   
     64. D(C   5,C   2,C   0,C   3)      0.5234         0.027393   
     65. D(C   5,C   2,C   0,H  14)   -179.4148         0.027393   
     66. D(H  16,C   3,C   0,H  14)      0.3507         0.025029   
     67. D(C   4,C   3,C   0,C   2)     -0.5463         0.025029   
     68. D(H  16,C   3,C   0,C   2)   -179.5885         0.025029   
     69. D(C   4,C   3,C   0,H  14)    179.3929         0.025029   
     70. D(C   1,C   4,C   3,H  16)    178.6280         0.023886   
     71. D(C   8,C   4,C   1,H  15)      4.0303         0.024690   
     72. D(C   1,C   4,C   3,C   0)     -0.3923         0.023886   
     73. D(C   3,C   4,C   1,C   5)      1.3530         0.024690   
     74. D(C   8,C   4,C   1,C   5)   -176.7128         0.024690   
     75. D(C   8,C   4,C   3,C   0)    177.6603         0.023886   
     76. D(C   3,C   4,C   1,H  15)   -177.9039         0.024690   
     77. D(C   8,C   4,C   3,H  16)     -3.3195         0.023886   
     78. D(O   7,C   5,C   2,O   6)      0.7833         0.026965   
     79. D(C   1,C   5,C   2,O   6)   -179.6400         0.026965   
     80. D(O   7,C   5,C   1,H  15)     -2.5334         0.027585   
     81. D(O   7,C   5,C   1,C   4)    178.1847         0.027585   
     82. D(C   1,C   5,C   2,C   0)      0.4520         0.026965   
     83. D(O   7,C   5,C   2,C   0)   -179.1248         0.026965   
     84. D(C   2,C   5,C   1,H  15)    177.8824         0.027585   
     85. D(C   2,C   5,C   1,C   4)     -1.3994         0.027585   
     86. D(H  17,O   6,C   2,C   5)    173.7897         0.027626   
     87. D(H  17,O   6,C   2,C   0)     -6.3043         0.027626   
     88. D(H  18,O   7,C   5,C   2)     -4.1402         0.027865   
     89. D(H  18,O   7,C   5,C   1)    176.2727         0.027865   
     90. D(H  19,C   8,C   4,C   1)    -24.9824         0.012105   
     91. D(C   9,C   8,C   4,C   3)    -80.3793         0.012105   
     92. D(C   9,C   8,C   4,C   1)     97.6554         0.012105   
     93. D(H  20,C   8,C   4,C   3)     41.2296         0.012105   
     94. D(H  20,C   8,C   4,C   1)   -140.7357         0.012105   
     95. D(H  19,C   8,C   4,C   3)    156.9829         0.012105   
     96. D(H  22,C   9,C   8,H  19)    -55.2456         0.011092   
     97. D(H  22,C   9,C   8,C   4)   -177.8273         0.011092   
     98. D(H  21,C   9,C   8,H  20)    -61.7311         0.011092   
     99. D(H  21,C   9,C   8,H  19)   -177.7181         0.011092   
    100. D(H  21,C   9,C   8,C   4)     59.7003         0.011092   
    101. D(N  10,C   9,C   8,H  20)    179.3002         0.011092   
    102. D(N  10,C   9,C   8,H  19)     63.3133         0.011092   
    103. D(H  22,C   9,C   8,H  20)     60.7414         0.011092   
    104. D(N  10,C   9,C   8,C   4)    -59.2684         0.011092   
    105. D(H  13,N  10,C   9,H  22)     62.8926         0.013917   
    106. D(H  13,N  10,C   9,H  21)    179.4977         0.013917   
    107. D(H  13,N  10,C   9,C   8)    -58.2228         0.013917   
    108. D(H  12,N  10,C   9,H  22)    -58.1646         0.013917   
    109. D(H  12,N  10,C   9,H  21)     58.4405         0.013917   
    110. D(H  12,N  10,C   9,C   8)   -179.2800         0.013917   
    111. D(H  11,N  10,C   9,H  22)   -177.5755         0.013917   
    112. D(H  11,N  10,C   9,H  21)    -60.9704         0.013917   
    113. D(H  11,N  10,C   9,C   8)     61.3090         0.013917   
    -----------------------------------------------------------------

Number of atoms                         .... 23
Number of degrees of freedom            .... 113

         *************************************************************
         *                GEOMETRY OPTIMIZATION CYCLE   1            *
         *************************************************************
---------------------------------
CARTESIAN COORDINATES (ANGSTROEM)
---------------------------------
  C     -1.224823   -1.587242    0.220921
  C     -0.017892    0.791629   -0.642482
  C     -1.950120   -0.403966    0.185336
  C      0.121085   -1.577659   -0.164105
  C      0.736243   -0.388929   -0.594533
  C     -1.345335    0.773733   -0.239305
  O     -3.261213   -0.341801    0.559007
  O     -2.048891    1.941679   -0.258944
  C      2.199890   -0.366462   -0.959628
  C      3.105051   -0.278056    0.271559
  N      2.816475    0.949776    1.061500
  H      1.843695    0.946388    1.405002
  H      3.427806    1.024026    1.884278
  H      2.935367    1.805323    0.503860
  H     -1.684210   -2.518465    0.541070
  H      0.403518    1.727905   -0.999767
  H      0.676081   -2.514793   -0.137679
  H     -3.584019   -1.243249    0.736823
  H     -2.961362    1.693307   -0.000448
  H      2.402267    0.475666   -1.633564
  H      2.443113   -1.272673   -1.527915
  H      2.960421   -1.124636    0.950005
  H      4.158241   -0.224542   -0.019249

----------------------------
CARTESIAN COORDINATES (A.U.)
----------------------------
  NO LB      ZA    FRAG     MASS         X           Y           Z
   0 C     6.0000    0    12.011   -2.314580   -2.999453    0.417480
   1 C     6.0000    0    12.011   -0.033811    1.495962   -1.214115
   2 C     6.0000    0    12.011   -3.685193   -0.763385    0.350234
   3 C     6.0000    0    12.011    0.228817   -2.981343   -0.310114
   4 C     6.0000    0    12.011    1.391298   -0.734969   -1.123505
   5 C     6.0000    0    12.011   -2.542315    1.462143   -0.452221
   6 O     8.0000    0    15.999   -6.162799   -0.645910    1.056370
   7 O     8.0000    0    15.999   -3.871843    3.669242   -0.489333
   8 C     6.0000    0    12.011    4.157190   -0.692513   -1.813434
   9 C     6.0000    0    12.011    5.867696   -0.525450    0.513172
  10 N     7.0000    0    14.007    5.322366    1.794817    2.005944
  11 H     1.0000    0     1.008    3.484079    1.788414    2.655069
  12 H     1.0000    0     1.008    6.477615    1.935129    3.560769
  13 H     1.0000    0     1.008    5.547040    3.411566    0.952157
  14 H     1.0000    0     1.008   -3.182696   -4.759209    1.022474
  15 H     1.0000    0     1.008    0.762539    3.265267   -1.889286
  16 H     1.0000    0     1.008    1.277608   -4.752270   -0.260176
  17 H     1.0000    0     1.008   -6.772814   -2.349400    1.392394
  18 H     1.0000    0     1.008   -5.596163    3.199886   -0.000847
  19 H     1.0000    0     1.008    4.539627    0.898878   -3.086989
  20 H     1.0000    0     1.008    4.616814   -2.405003   -2.887341
  21 H     1.0000    0     1.008    5.594385   -2.125254    1.795249
  22 H     1.0000    0     1.008    7.857937   -0.424323   -0.036375

--------------------------------
INTERNAL COORDINATES (ANGSTROEM)
--------------------------------
 C      0   0   0     0.000000000000     0.00000000     0.00000000
 C      1   0   0     2.803778595719     0.00000000     0.00000000
 C      1   2   0     1.388331416705    59.59269746     0.00000000
 C      1   2   3     1.399930426496    59.71135100   180.75295956
 C      2   1   3     1.401690371013    60.42683223   179.05036051
 C      2   1   3     1.387435360078    59.18404585     0.22413006
 O      3   1   2     1.364719516280   122.25581952   179.87422441
 O      6   2   1     1.363625533045   118.58115365   179.35881916
 C      5   2   1     1.508662210610   120.07571709   182.12785618
 C      9   5   2     1.530670926661   112.32835392    97.65536973
 N     10   9   5     1.488238660794   111.09544455   300.73161141
 H     11  10   9     1.031652088132   110.90765575    61.30903645
 H     11  10   9     1.027717028829   111.66669474   180.71998234
 H     11  10   9     1.028133428341   112.09968410   301.77716280
 H      1   2   3     1.086603917579   178.99207118   136.71758444
 H      2   1   3     1.087130032471   177.17724352   324.12847282
 H      4   1   2     1.089467313621   118.50282347   181.15612753
 H      7   3   1     0.973874088471   109.04257295   353.69572103
 H      8   6   2     0.980363278709   105.03598478   176.27270634
 H      9   5   2     1.097417764850   109.81300857   335.01756001
 H      9   5   2     1.096962131807   109.15803676   219.26426810
 H     10   9   5     1.094488240328   112.07227054    59.70025548
 H     10   9   5     1.093911430217   110.99782088   182.17273376

---------------------------
INTERNAL COORDINATES (A.U.)
---------------------------
 C      0   0   0     0.000000000000     0.00000000     0.00000000
 C      1   0   0     5.298373686059     0.00000000     0.00000000
 C      1   2   0     2.623566160691    59.59269746     0.00000000
 C      1   2   3     2.645485112621    59.71135100   180.75295956
 C      2   1   3     2.648810925769    60.42683223   179.05036051
 C      2   1   3     2.621872859065    59.18404585     0.22413006
 O      3   1   2     2.578946135386   122.25581952   179.87422441
 O      6   2   1     2.576878806678   118.58115365   179.35881916
 C      5   2   1     2.850958406649   120.07571709   182.12785618
 C      9   5   2     2.892548852545   112.32835392    97.65536973
 N     10   9   5     2.812363490814   111.09544455   300.73161141
 H     11  10   9     1.949539912058   110.90765575    61.30903645
 H     11  10   9     1.942103727654   111.66669474   180.71998234
 H     11  10   9     1.942890608695   112.09968410   301.77716280
 H      1   2   3     2.053383820271   178.99207118   136.71758444
 H      2   1   3     2.054378033332   177.17724352   324.12847282
 H      4   1   2     2.058794854602   118.50282347   181.15612753
 H      7   3   1     1.840355316133   109.04257295   353.69572103
 H      8   6   2     1.852618108513   105.03598478   176.27270634
 H      9   5   2     2.073819030067   109.81300857   335.01756001
 H      9   5   2     2.072958008398   109.15803676   219.26426810
 H     10   9   5     2.068283031017   112.07227054    59.70025548
 H     10   9   5     2.067193017877   110.99782088   182.17273376

---------------------
BASIS SET INFORMATION
---------------------
There are 4 groups of distinct atoms

 Group   1 Type C   : 11s6p2d1f contracted to 5s3p2d1f pattern {62111/411/11/1}
 Group   2 Type O   : 11s6p2d1f contracted to 5s3p2d1f pattern {62111/411/11/1}
 Group   3 Type N   : 11s6p2d1f contracted to 5s3p2d1f pattern {62111/411/11/1}
 Group   4 Type H   : 5s1p contracted to 3s1p pattern {311/1}

Atom   0C    basis set group =>   1
Atom   1C    basis set group =>   1
Atom   2C    basis set group =>   1
Atom   3C    basis set group =>   1
Atom   4C    basis set group =>   1
Atom   5C    basis set group =>   1
Atom   6O    basis set group =>   2
Atom   7O    basis set group =>   2
Atom   8C    basis set group =>   1
Atom   9C    basis set group =>   1
Atom  10N    basis set group =>   3
Atom  11H    basis set group =>   4
Atom  12H    basis set group =>   4
Atom  13H    basis set group =>   4
Atom  14H    basis set group =>   4
Atom  15H    basis set group =>   4
Atom  16H    basis set group =>   4
Atom  17H    basis set group =>   4
Atom  18H    basis set group =>   4
Atom  19H    basis set group =>   4
Atom  20H    basis set group =>   4
Atom  21H    basis set group =>   4
Atom  22H    basis set group =>   4
---------------------------------
AUXILIARY/J BASIS SET INFORMATION
---------------------------------
There are 4 groups of distinct atoms

 Group   1 Type C   : 12s5p4d2f1g contracted to 6s4p3d1f1g pattern {711111/2111/211/2/1}
 Group   2 Type O   : 12s5p4d2f1g contracted to 6s4p3d1f1g pattern {711111/2111/211/2/1}
 Group   3 Type N   : 12s5p4d2f1g contracted to 6s4p3d1f1g pattern {711111/2111/211/2/1}
 Group   4 Type H   : 5s2p1d contracted to 3s1p1d pattern {311/2/1}

Atom   0C    basis set group =>   1
Atom   1C    basis set group =>   1
Atom   2C    basis set group =>   1
Atom   3C    basis set group =>   1
Atom   4C    basis set group =>   1
Atom   5C    basis set group =>   1
Atom   6O    basis set group =>   2
Atom   7O    basis set group =>   2
Atom   8C    basis set group =>   1
Atom   9C    basis set group =>   1
Atom  10N    basis set group =>   3
Atom  11H    basis set group =>   4
Atom  12H    basis set group =>   4
Atom  13H    basis set group =>   4
Atom  14H    basis set group =>   4
Atom  15H    basis set group =>   4
Atom  16H    basis set group =>   4
Atom  17H    basis set group =>   4
Atom  18H    basis set group =>   4
Atom  19H    basis set group =>   4
Atom  20H    basis set group =>   4
Atom  21H    basis set group =>   4
Atom  22H    basis set group =>   4


           ************************************************************
           *        Program running with 8 parallel MPI-processes     *
           *              working on a common directory               *
           ************************************************************
------------------------------------------------------------------------------
                           ORCA GTO INTEGRAL CALCULATION
                           -- RI-GTO INTEGRALS CHOSEN --
------------------------------------------------------------------------------
------------------------------------------------------------------------------
                   ___                                                        
                  /   \      - P O W E R E D   B Y -                         
                 /     \                                                     
                 |  |  |   _    _      __       _____    __    __             
                 |  |  |  | |  | |    /  \     |  _  \  |  |  /  |          
                  \  \/   | |  | |   /    \    | | | |  |  | /  /          
                 / \  \   | |__| |  /  /\  \   | |_| |  |  |/  /          
                |  |  |   |  __  | /  /__\  \  |    /   |      \           
                |  |  |   | |  | | |   __   |  |    \   |  |\   \          
                \     /   | |  | | |  |  |  |  | |\  \  |  | \   \       
                 \___/    |_|  |_| |__|  |__|  |_| \__\ |__|  \__/        
                                                                              
                      - O R C A' S   B I G   F R I E N D -                    
                                      &                                       
                       - I N T E G R A L  F E E D E R -                       
                                                                              
 v1 FN, 2020, v2 2021                                                         
------------------------------------------------------------------------------


Reading SHARK input file M0001.SHARKINP.tmp ... ok
----------------------
SHARK INTEGRAL PACKAGE
----------------------

Number of atoms                             ...     23
Number of basis functions                   ...    413
Number of shells                            ...    169
Maximum angular momentum                    ...      3
Integral batch strategy                     ... SHARK/LIBINT Hybrid
RI-J (if used) integral strategy            ... SPLIT-RIJ (Revised 2003 algorithm where possible)
Printlevel                                  ...      1
Contraction scheme used                     ... SEGMENTED contraction
Coulomb Range Separation                    ... NOT USED
Exchange Range Separation                   ... NOT USED
Finite Nucleus Model                        ... NOT USED
Auxiliary Coulomb fitting basis             ... AVAILABLE
   # of basis functions in Aux-J            ...    671
   # of shells in Aux-J                     ...    225
   Maximum angular momentum in Aux-J        ...      4
Auxiliary J/K fitting basis                 ... NOT available
Auxiliary Correlation fitting basis         ... NOT available
Auxiliary 'external' fitting basis          ... NOT available
Integral threshold                          ...     2.500000e-11
Primitive cut-off                           ...     2.500000e-12
Primitive pair pre-selection threshold      ...     2.500000e-12

Calculating pre-screening integrals         ... done (  0.1 sec) Dimension = 169
Organizing shell pair data                  ... done (  0.1 sec)
Shell pair information
Total number of shell pairs                 ...     14365
Shell pairs after pre-screening             ...     12240
Total number of primitive shell pairs       ...     43056
Primitive shell pairs kept                  ...     26555
          la=0 lb=0:   3451 shell pairs
          la=1 lb=0:   3525 shell pairs
          la=1 lb=1:    927 shell pairs
          la=2 lb=0:   1706 shell pairs
          la=2 lb=1:    879 shell pairs
          la=2 lb=2:    222 shell pairs
          la=3 lb=0:    826 shell pairs
          la=3 lb=1:    435 shell pairs
          la=3 lb=2:    211 shell pairs
          la=3 lb=3:     58 shell pairs

Calculating one electron integrals          ... done (  0.0 sec)
Calculating RI/J V-Matrix + Cholesky decomp.... done (  0.0 sec)
Calculating Nuclear repulsion               ... done (  0.0 sec) ENN=    619.189268196536 Eh

SHARK setup successfully completed in   0.2 seconds

Maximum memory used throughout the entire GTOINT-calculation: 20.7 MB


           ************************************************************
           *        Program running with 8 parallel MPI-processes     *
           *              working on a common directory               *
           ************************************************************
-------------------------------------------------------------------------------
                                 ORCA SCF
-------------------------------------------------------------------------------

------------
SCF SETTINGS
------------
Hamiltonian:
 Density Functional     Method          .... DFT(GTOs)
 Exchange Functional    Exchange        .... PBE
   PBE kappa parameter   XKappa         ....  0.804000
   PBE mue parameter    XMuePBE         ....  0.219520
 Correlation Functional Correlation     .... PBE
   PBE beta parameter  CBetaPBE         ....  0.066725
 LDA part of GGA corr.  LDAOpt          .... PW91-LDA
 Gradients option       PostSCFGGA      .... off
   Density functional embedding theory  .... OFF
   NL short-range parameter             ....  6.400000
 RI-approximation to the Coulomb term is turned on
   Number of AuxJ basis functions       .... 671


General Settings:
 Integral files         IntName         .... M0001
 Hartree-Fock type      HFTyp           .... RHF
 Total Charge           Charge          ....    1
 Multiplicity           Mult            ....    1
 Number of Electrons    NEL             ....   82
 Basis Dimension        Dim             ....  413
 Nuclear Repulsion      ENuc            ....    619.1892681965 Eh

Convergence Acceleration:
 DIIS                   CNVDIIS         .... on
   Start iteration      DIISMaxIt       ....    12
   Startup error        DIISStart       ....  0.200000
   # of expansion vecs  DIISMaxEq       ....     5
   Bias factor          DIISBfac        ....   1.050
   Max. coefficient     DIISMaxC        ....  10.000
 Trust-Rad. Augm. Hess. CNVTRAH         .... auto
   Auto Start mean grad. ratio tolernc. ....  1.125000
   Auto Start start iteration           ....    20
   Auto Start num. interpolation iter.  ....    10
   Max. Number of Micro iterations      ....    16
   Max. Number of Macro iterations      .... Maxiter - #DIIS iter
   Number of Davidson start vectors     ....     2
   Converg. threshold I  (grad. norm)   ....   1.000e-05
   Converg. threshold II (energy diff.) ....   1.000e-08
   Grad. Scal. Fac. for Micro threshold ....   0.100
   Minimum threshold for Micro iter.    ....   0.010
   NR start threshold (gradient norm)   ....   0.001
   Initial trust radius                 ....   0.400
   Minimum AH scaling param. (alpha)    ....   1.000
   Maximum AH scaling param. (alpha)    .... 1000.000
   Orbital update algorithm             .... Taylor
   White noise on init. David. guess    .... on
   Maximum white noise                  ....   0.010
   Quad. conv. algorithm                .... NR
 SOSCF                  CNVSOSCF        .... on
   Start iteration      SOSCFMaxIt      ....   150
   Startup grad/error   SOSCFStart      ....  0.003300
 Level Shifting         CNVShift        .... on
   Level shift para.    LevelShift      ....    0.2500
   Turn off err/grad.   ShiftErr        ....    0.0010
 Zerner damping         CNVZerner       .... off
 Static damping         CNVDamp         .... on
   Fraction old density DampFac         ....    0.7000
   Max. Damping (<1)    DampMax         ....    0.9800
   Min. Damping (>=0)   DampMin         ....    0.0000
   Turn off err/grad.   DampErr         ....    0.1000
 Fernandez-Rico         CNVRico         .... off

SCF Procedure:
 Maximum # iterations   MaxIter         ....   125
 SCF integral mode      SCFMode         .... Direct
   Integral package                     .... SHARK and LIBINT hybrid scheme
 Reset frequency        DirectResetFreq ....    20
 Integral Threshold     Thresh          ....  2.500e-11 Eh
 Primitive CutOff       TCut            ....  2.500e-12 Eh

Convergence Tolerance:
 Convergence Check Mode ConvCheckMode   .... Total+1el-Energy
 Convergence forced     ConvForced      .... 0
 Energy Change          TolE            ....  1.000e-08 Eh
 1-El. energy change                    ....  1.000e-05 Eh
 Orbital Gradient       TolG            ....  1.000e-05
 Orbital Rotation angle TolX            ....  1.000e-05
 DIIS Error             TolErr          ....  5.000e-07


Diagonalization of the overlap matrix:
Smallest eigenvalue                        ... 8.890e-06
Time for diagonalization                   ...    0.019 sec
Threshold for overlap eigenvalues          ... 1.000e-08
Number of eigenvalues below threshold      ... 0
Time for construction of square roots      ...    0.019 sec
Total time needed                          ...    0.039 sec

Time for model grid setup =    0.089 sec

------------------------------
INITIAL GUESS: MODEL POTENTIAL
------------------------------
Loading Hartree-Fock densities                     ... done
Calculating cut-offs                               ... done
Initializing the effective Hamiltonian             ... done
Setting up the integral package (SHARK)            ... done
Starting the Coulomb interaction                   ... done (   0.1 sec)
Reading the grid                                   ... done
Mapping shells                                     ... done
Starting the XC term evaluation                    ... done (   0.1 sec)
  promolecular density results
     # of electrons  =     83.001970761
     EX              =    -67.387334400
     EC              =     -2.776258751
     EX+EC           =    -70.163593150
Transforming the Hamiltonian                       ... done (   0.0 sec)
Diagonalizing the Hamiltonian                      ... done (   0.0 sec)
Back transforming the eigenvectors                 ... done (   0.0 sec)
Now organizing SCF variables                       ... done
                      ------------------
                      INITIAL GUESS DONE (   0.4 sec)
                      ------------------
-------------------
DFT GRID GENERATION
-------------------

General Integration Accuracy     IntAcc      ... 4.388
Radial Grid Type                 RadialGrid  ... OptM3 with GC (2021)
Angular Grid (max. ang.)         AngularGrid ... 4 (Lebedev-302)
Angular grid pruning method      GridPruning ... 4 (adaptive)
Weight generation scheme         WeightScheme... Becke
Basis function cutoff            BFCut       ... 1.0000e-11
Integration weight cutoff        WCut        ... 1.0000e-14
Angular grids for H and He will be reduced by one unit
Partially contracted basis set               ... off
Rotationally invariant grid construction     ... off

Total number of grid points                  ...   104400
Total number of batches                      ...     1642
Average number of points per batch           ...       63
Average number of grid points per atom       ...     4539
Time for grid setup =    0.511 sec

--------------
SCF ITERATIONS
--------------
ITER       Energy         Delta-E        Max-DP      RMS-DP      [F,P]     Damp
               ***  Starting incremental Fock matrix formation  ***
  0   -516.3758291000   0.000000000000 0.20242423  0.00161178  0.2098597 0.7000
  1   -516.4913140524  -0.115484952395 0.18964228  0.00148378  0.0821822 0.7000
                               ***Turning on DIIS***
  2   -516.5327051069  -0.041391054510 0.21613329  0.00223814  0.0229878 0.0000
  3   -516.5958059078  -0.063100800892 0.17745561  0.00126208  0.0460792 0.0000
  4   -516.6129383550  -0.017132447269 0.05318019  0.00047291  0.0112293 0.0000
  5   -516.6140326312  -0.001094276197 0.02499731  0.00020045  0.0056114 0.0000
                      *** Initiating the SOSCF procedure ***
                           *** Shutting down DIIS ***
                      *** Re-Reading the Fockian *** 
                      *** Removing any level shift *** 
ITER      Energy       Delta-E        Grad      Rot      Max-DP    RMS-DP
  6   -516.61415801  -0.0001253792  0.000342  0.000342  0.005002  0.000057
               *** Restarting incremental Fock matrix formation ***
  7   -516.61416617  -0.0000081588  0.000345  0.001978  0.004603  0.000048
  8   -516.61415637   0.0000098000  0.000994  0.001880  0.002152  0.000019
  9   -516.61416911  -0.0000127452  0.000051  0.000240  0.000486  0.000006
 10   -516.61416892   0.0000001917  0.000093  0.000092  0.000386  0.000003
 11   -516.61416922  -0.0000003007  0.000012  0.000055  0.000161  0.000002
 12   -516.61416920   0.0000000194  0.000025  0.000046  0.000098  0.000001
 13   -516.61416923  -0.0000000250  0.000004  0.000021  0.000316  0.000003
 14   -516.61416924  -0.0000000073  0.000007  0.000017  0.000163  0.000001
                  ***Gradient check signals convergence***
              ***Rediagonalizing the Fockian in SOSCF/NRSCF***

               *****************************************************
               *                     SUCCESS                       *
               *           SCF CONVERGED AFTER  15 CYCLES          *
               *****************************************************


----------------
TOTAL SCF ENERGY
----------------

Total Energy       :         -516.61416924 Eh          -14057.78623 eV

Components:
Nuclear Repulsion  :          619.18926820 Eh           16848.99657 eV
Electronic Energy  :        -1135.80343743 Eh          -30906.78280 eV
One Electron Energy:        -1917.54111202 Eh          -52178.94638 eV
Two Electron Energy:          781.73767458 Eh           21272.16358 eV

Virial components:
Potential Energy   :        -1031.06906471 Eh          -28056.81563 eV
Kinetic Energy     :          514.45489547 Eh           13999.02940 eV
Virial Ratio       :            2.00419721


DFT components:
N(Alpha)           :       40.999904659733 electrons
N(Beta)            :       40.999904659733 electrons
N(Total)           :       81.999809319466 electrons
E(X)               :      -68.438013374577 Eh       
E(C)               :       -2.747556498645 Eh       
E(XC)              :      -71.185569873222 Eh       
DFET-embed. en.    :        0.000000000000 Eh       

---------------
SCF CONVERGENCE
---------------

  Last Energy change         ...   -1.6457e-09  Tolerance :   1.0000e-08
  Last MAX-Density change    ...    6.2517e-05  Tolerance :   1.0000e-07
  Last RMS-Density change    ...    1.0572e-06  Tolerance :   5.0000e-09
  Last Orbital Gradient      ...    2.1358e-06  Tolerance :   1.0000e-05
  Last Orbital Rotation      ...    6.4837e-06  Tolerance :   1.0000e-05

             **** THE GBW FILE WAS UPDATED (M0001.gbw) ****
             **** DENSITY M0001.scfp WAS UPDATED ****
             **** ENERGY FILE WAS UPDATED (M0001.en.tmp) ****
             **** THE GBW FILE WAS UPDATED (M0001.gbw) ****
             **** DENSITY M0001.scfp WAS UPDATED ****
----------------
ORBITAL ENERGIES
----------------

  NO   OCC          E(Eh)            E(eV) 
   0   2.0000     -18.908421      -514.5243 
   1   2.0000     -18.894743      -514.1521 
   2   2.0000     -14.292373      -388.9152 
   3   2.0000     -10.114899      -275.2404 
   4   2.0000     -10.066374      -273.9200 
   5   2.0000     -10.064810      -273.8774 
   6   2.0000     -10.050087      -273.4768 
   7   2.0000     -10.028890      -272.9000 
   8   2.0000     -10.014536      -272.5094 
   9   2.0000     -10.012739      -272.4605 
  10   2.0000     -10.011577      -272.4289 
  11   2.0000      -1.112450       -30.2713 
  12   2.0000      -1.109493       -30.1908 
  13   2.0000      -1.080557       -29.4034 
  14   2.0000      -0.915054       -24.8999 
  15   2.0000      -0.875109       -23.8129 
  16   2.0000      -0.811412       -22.0796 
  17   2.0000      -0.799297       -21.7500 
  18   2.0000      -0.751308       -20.4441 
  19   2.0000      -0.721964       -19.6456 
  20   2.0000      -0.715406       -19.4672 
  21   2.0000      -0.694603       -18.9011 
  22   2.0000      -0.674593       -18.3566 
  23   2.0000      -0.629624       -17.1329 
  24   2.0000      -0.622495       -16.9389 
  25   2.0000      -0.602954       -16.4072 
  26   2.0000      -0.565009       -15.3747 
  27   2.0000      -0.556496       -15.1430 
  28   2.0000      -0.536369       -14.5953 
  29   2.0000      -0.524023       -14.2594 
  30   2.0000      -0.518950       -14.1214 
  31   2.0000      -0.507117       -13.7994 
  32   2.0000      -0.493702       -13.4343 
  33   2.0000      -0.475033       -12.9263 
  34   2.0000      -0.462013       -12.5720 
  35   2.0000      -0.443354       -12.0643 
  36   2.0000      -0.438643       -11.9361 
  37   2.0000      -0.428112       -11.6495 
  38   2.0000      -0.415627       -11.3098 
  39   2.0000      -0.345464        -9.4006 
  40   2.0000      -0.310917        -8.4605 
  41   0.0000      -0.196388        -5.3440 
  42   0.0000      -0.168416        -4.5828 
  43   0.0000      -0.154509        -4.2044 
  44   0.0000      -0.142292        -3.8720 
  45   0.0000      -0.133189        -3.6243 
  46   0.0000      -0.112607        -3.0642 
  47   0.0000      -0.108518        -2.9529 
  48   0.0000      -0.087052        -2.3688 
  49   0.0000      -0.080135        -2.1806 
  50   0.0000      -0.077665        -2.1134 
  51   0.0000      -0.067051        -1.8246 
  52   0.0000      -0.049679        -1.3518 
  53   0.0000      -0.047776        -1.3001 
  54   0.0000      -0.036790        -1.0011 
  55   0.0000      -0.022567        -0.6141 
  56   0.0000      -0.012004        -0.3266 
  57   0.0000      -0.005920        -0.1611 
  58   0.0000       0.004499         0.1224 
  59   0.0000       0.010752         0.2926 
  60   0.0000       0.025664         0.6983 
  61   0.0000       0.039871         1.0849 
  62   0.0000       0.041346         1.1251 
  63   0.0000       0.054010         1.4697 
  64   0.0000       0.059544         1.6203 
  65   0.0000       0.064592         1.7576 
  66   0.0000       0.079765         2.1705 
  67   0.0000       0.087303         2.3756 
  68   0.0000       0.096674         2.6306 
  69   0.0000       0.107635         2.9289 
  70   0.0000       0.112916         3.0726 
  71   0.0000       0.126623         3.4456 
  72   0.0000       0.137656         3.7458 
  73   0.0000       0.140342         3.8189 
  74   0.0000       0.149154         4.0587 
  75   0.0000       0.158498         4.3130 
  76   0.0000       0.167439         4.5563 
  77   0.0000       0.183039         4.9808 
  78   0.0000       0.186620         5.0782 
  79   0.0000       0.194987         5.3059 
  80   0.0000       0.200056         5.4438 
  81   0.0000       0.216001         5.8777 
  82   0.0000       0.217263         5.9120 
  83   0.0000       0.218564         5.9474 
  84   0.0000       0.225869         6.1462 
  85   0.0000       0.232030         6.3138 
  86   0.0000       0.236814         6.4440 
  87   0.0000       0.242447         6.5973 
  88   0.0000       0.246076         6.6961 
  89   0.0000       0.258588         7.0365 
  90   0.0000       0.261312         7.1107 
  91   0.0000       0.264969         7.2102 
  92   0.0000       0.275548         7.4981 
  93   0.0000       0.285141         7.7591 
  94   0.0000       0.290805         7.9132 
  95   0.0000       0.294007         8.0003 
  96   0.0000       0.301628         8.2077 
  97   0.0000       0.307366         8.3639 
  98   0.0000       0.321992         8.7618 
  99   0.0000       0.332261         9.0413 
 100   0.0000       0.346477         9.4281 
 101   0.0000       0.362028         9.8513 
 102   0.0000       0.369758        10.0616 
 103   0.0000       0.381947        10.3933 
 104   0.0000       0.386830        10.5262 
 105   0.0000       0.405781        11.0419 
 106   0.0000       0.421587        11.4720 
 107   0.0000       0.428831        11.6691 
 108   0.0000       0.440180        11.9779 
 109   0.0000       0.447233        12.1698 
 110   0.0000       0.456715        12.4279 
 111   0.0000       0.464851        12.6493 
 112   0.0000       0.482325        13.1247 
 113   0.0000       0.486477        13.2377 
 114   0.0000       0.496977        13.5234 
 115   0.0000       0.512659        13.9502 
 116   0.0000       0.533540        14.5184 
 117   0.0000       0.542760        14.7693 
 118   0.0000       0.560670        15.2566 
 119   0.0000       0.568858        15.4794 
 120   0.0000       0.591033        16.0828 
 121   0.0000       0.597990        16.2721 
 122   0.0000       0.609357        16.5814 
 123   0.0000       0.613397        16.6914 
 124   0.0000       0.623531        16.9671 
 125   0.0000       0.654358        17.8060 
 126   0.0000       0.663112        18.0442 
 127   0.0000       0.668760        18.1979 
 128   0.0000       0.673505        18.3270 
 129   0.0000       0.687481        18.7073 
 130   0.0000       0.700191        19.0532 
 131   0.0000       0.713094        19.4043 
 132   0.0000       0.725884        19.7523 
 133   0.0000       0.753938        20.5157 
 134   0.0000       0.759417        20.6648 
 135   0.0000       0.787747        21.4357 
 136   0.0000       0.795391        21.6437 
 137   0.0000       0.831151        22.6168 
 138   0.0000       0.854930        23.2638 
 139   0.0000       0.870108        23.6769 
 140   0.0000       0.884104        24.0577 
 141   0.0000       0.886548        24.1242 
 142   0.0000       0.897781        24.4299 
 143   0.0000       0.913917        24.8690 
 144   0.0000       0.925048        25.1718 
 145   0.0000       0.946861        25.7654 
 146   0.0000       0.951136        25.8817 
 147   0.0000       0.968967        26.3669 
 148   0.0000       0.997373        27.1399 
 149   0.0000       1.009405        27.4673 
 150   0.0000       1.018230        27.7075 
 151   0.0000       1.026697        27.9378 
 152   0.0000       1.036433        28.2028 
 153   0.0000       1.049077        28.5468 
 154   0.0000       1.079587        29.3770 
 155   0.0000       1.087808        29.6008 
 156   0.0000       1.090924        29.6855 
 157   0.0000       1.121957        30.5300 
 158   0.0000       1.126951        30.6659 
 159   0.0000       1.146061        31.1859 
 160   0.0000       1.152614        31.3642 
 161   0.0000       1.173760        31.9396 
 162   0.0000       1.182576        32.1795 
 163   0.0000       1.201442        32.6929 
 164   0.0000       1.208970        32.8978 
 165   0.0000       1.243826        33.8462 
 166   0.0000       1.256641        34.1949 
 167   0.0000       1.272539        34.6275 
 168   0.0000       1.292634        35.1744 
 169   0.0000       1.304681        35.5022 
 170   0.0000       1.321065        35.9480 
 171   0.0000       1.325637        36.0724 
 172   0.0000       1.347710        36.6731 
 173   0.0000       1.363453        37.1014 
 174   0.0000       1.371803        37.3287 
 175   0.0000       1.384910        37.6853 
 176   0.0000       1.402008        38.1506 
 177   0.0000       1.415411        38.5153 
 178   0.0000       1.431402        38.9504 
 179   0.0000       1.453560        39.5534 
 180   0.0000       1.468212        39.9521 
 181   0.0000       1.469515        39.9875 
 182   0.0000       1.486130        40.4397 
 183   0.0000       1.490908        40.5697 
 184   0.0000       1.510361        41.0990 
 185   0.0000       1.513078        41.1729 
 186   0.0000       1.526824        41.5470 
 187   0.0000       1.532585        41.7038 
 188   0.0000       1.550477        42.1906 
 189   0.0000       1.556386        42.3514 
 190   0.0000       1.570578        42.7376 
 191   0.0000       1.592266        43.3278 
 192   0.0000       1.613542        43.9067 
 193   0.0000       1.634996        44.4905 
 194   0.0000       1.655202        45.0403 
 195   0.0000       1.663083        45.2548 
 196   0.0000       1.667029        45.3622 
 197   0.0000       1.672677        45.5159 
 198   0.0000       1.698759        46.2256 
 199   0.0000       1.701665        46.3046 
 200   0.0000       1.711449        46.5709 
 201   0.0000       1.746136        47.5148 
 202   0.0000       1.751799        47.6689 
 203   0.0000       1.768170        48.1144 
 204   0.0000       1.780139        48.4400 
 205   0.0000       1.802475        49.0478 
 206   0.0000       1.814073        49.3634 
 207   0.0000       1.838879        50.0384 
 208   0.0000       1.854231        50.4562 
 209   0.0000       1.881764        51.2054 
 210   0.0000       1.904393        51.8212 
 211   0.0000       1.918788        52.2129 
 212   0.0000       1.941185        52.8223 
 213   0.0000       1.949770        53.0559 
 214   0.0000       1.961002        53.3616 
 215   0.0000       1.963073        53.4179 
 216   0.0000       1.976103        53.7725 
 217   0.0000       1.989936        54.1489 
 218   0.0000       2.016421        54.8696 
 219   0.0000       2.028900        55.2092 
 220   0.0000       2.038433        55.4686 
 221   0.0000       2.080461        56.6122 
 222   0.0000       2.096140        57.0389 
 223   0.0000       2.101378        57.1814 
 224   0.0000       2.121934        57.7408 
 225   0.0000       2.135856        58.1196 
 226   0.0000       2.147380        58.4332 
 227   0.0000       2.165338        58.9218 
 228   0.0000       2.196756        59.7768 
 229   0.0000       2.198403        59.8216 
 230   0.0000       2.225398        60.5562 
 231   0.0000       2.236380        60.8550 
 232   0.0000       2.250426        61.2372 
 233   0.0000       2.261745        61.5452 
 234   0.0000       2.284006        62.1510 
 235   0.0000       2.305150        62.7263 
 236   0.0000       2.308707        62.8231 
 237   0.0000       2.333472        63.4970 
 238   0.0000       2.339457        63.6599 
 239   0.0000       2.345365        63.8206 
 240   0.0000       2.355307        64.0912 
 241   0.0000       2.369637        64.4811 
 242   0.0000       2.395521        65.1854 
 243   0.0000       2.411225        65.6128 
 244   0.0000       2.428037        66.0703 
 245   0.0000       2.437251        66.3210 
 246   0.0000       2.455219        66.8099 
 247   0.0000       2.474476        67.3339 
 248   0.0000       2.479177        67.4618 
 249   0.0000       2.482706        67.5579 
 250   0.0000       2.510840        68.3234 
 251   0.0000       2.527792        68.7847 
 252   0.0000       2.537363        69.0452 
 253   0.0000       2.550958        69.4151 
 254   0.0000       2.557578        69.5952 
 255   0.0000       2.570718        69.9528 
 256   0.0000       2.579328        70.1871 
 257   0.0000       2.594613        70.6030 
 258   0.0000       2.623490        71.3888 
 259   0.0000       2.639290        71.8187 
 260   0.0000       2.649418        72.0943 
 261   0.0000       2.659772        72.3761 
 262   0.0000       2.683573        73.0237 
 263   0.0000       2.691825        73.2483 
 264   0.0000       2.693968        73.3066 
 265   0.0000       2.716912        73.9309 
 266   0.0000       2.720367        74.0249 
 267   0.0000       2.738288        74.5126 
 268   0.0000       2.751612        74.8752 
 269   0.0000       2.784065        75.7583 
 270   0.0000       2.792556        75.9893 
 271   0.0000       2.813747        76.5660 
 272   0.0000       2.818375        76.6919 
 273   0.0000       2.826383        76.9098 
 274   0.0000       2.842955        77.3608 
 275   0.0000       2.854613        77.6780 
 276   0.0000       2.857300        77.7511 
 277   0.0000       2.892974        78.7218 
 278   0.0000       2.907000        79.1035 
 279   0.0000       2.919807        79.4520 
 280   0.0000       2.921281        79.4921 
 281   0.0000       2.957974        80.4906 
 282   0.0000       2.959931        80.5438 
 283   0.0000       2.974902        80.9512 
 284   0.0000       2.986494        81.2666 
 285   0.0000       3.001776        81.6825 
 286   0.0000       3.006503        81.8111 
 287   0.0000       3.011526        81.9478 
 288   0.0000       3.032293        82.5129 
 289   0.0000       3.040600        82.7389 
 290   0.0000       3.050678        83.0132 
 291   0.0000       3.061216        83.2999 
 292   0.0000       3.082396        83.8763 
 293   0.0000       3.097846        84.2967 
 294   0.0000       3.108663        84.5910 
 295   0.0000       3.131405        85.2099 
 296   0.0000       3.134405        85.2915 
 297   0.0000       3.152762        85.7910 
 298   0.0000       3.170587        86.2761 
 299   0.0000       3.189402        86.7880 
 300   0.0000       3.206332        87.2487 
 301   0.0000       3.208501        87.3078 
 302   0.0000       3.235538        88.0435 
 303   0.0000       3.243045        88.2477 
 304   0.0000       3.246830        88.3507 
 305   0.0000       3.272509        89.0495 
 306   0.0000       3.284633        89.3794 
 307   0.0000       3.291553        89.5677 
 308   0.0000       3.305134        89.9373 
 309   0.0000       3.316903        90.2575 
 310   0.0000       3.328600        90.5758 
 311   0.0000       3.358729        91.3957 
 312   0.0000       3.398756        92.4848 
 313   0.0000       3.434682        93.4624 
 314   0.0000       3.454641        94.0056 
 315   0.0000       3.464155        94.2645 
 316   0.0000       3.490585        94.9836 
 317   0.0000       3.498621        95.2023 
 318   0.0000       3.516463        95.6878 
 319   0.0000       3.546046        96.4928 
 320   0.0000       3.583450        97.5106 
 321   0.0000       3.594866        97.8213 
 322   0.0000       3.606218        98.1302 
 323   0.0000       3.642469        99.1166 
 324   0.0000       3.680824       100.1603 
 325   0.0000       3.688108       100.3585 
 326   0.0000       3.716898       101.1419 
 327   0.0000       3.732453       101.5652 
 328   0.0000       3.757281       102.2408 
 329   0.0000       3.784003       102.9680 
 330   0.0000       3.809274       103.6556 
 331   0.0000       3.836223       104.3889 
 332   0.0000       3.847840       104.7051 
 333   0.0000       3.873761       105.4104 
 334   0.0000       3.932786       107.0166 
 335   0.0000       3.949895       107.4821 
 336   0.0000       3.954907       107.6185 
 337   0.0000       3.974558       108.1532 
 338   0.0000       3.984836       108.4329 
 339   0.0000       4.010426       109.1292 
 340   0.0000       4.018850       109.3585 
 341   0.0000       4.030158       109.6662 
 342   0.0000       4.074909       110.8839 
 343   0.0000       4.086710       111.2050 
 344   0.0000       4.112051       111.8946 
 345   0.0000       4.129084       112.3581 
 346   0.0000       4.171686       113.5173 
 347   0.0000       4.204611       114.4133 
 348   0.0000       4.234859       115.2364 
 349   0.0000       4.254159       115.7615 
 350   0.0000       4.339197       118.0756 
 351   0.0000       4.361166       118.6734 
 352   0.0000       4.381702       119.2322 
 353   0.0000       4.429969       120.5456 
 354   0.0000       4.434138       120.6590 
 355   0.0000       4.464555       121.4867 
 356   0.0000       4.502678       122.5241 
 357   0.0000       4.537727       123.4778 
 358   0.0000       4.566470       124.2600 
 359   0.0000       4.584694       124.7559 
 360   0.0000       4.613975       125.5527 
 361   0.0000       4.646703       126.4432 
 362   0.0000       4.660043       126.8062 
 363   0.0000       4.676330       127.2494 
 364   0.0000       4.696433       127.7964 
 365   0.0000       4.735316       128.8545 
 366   0.0000       4.771965       129.8518 
 367   0.0000       4.818752       131.1249 
 368   0.0000       4.855684       132.1299 
 369   0.0000       4.887605       132.9985 
 370   0.0000       4.903764       133.4382 
 371   0.0000       4.997699       135.9943 
 372   0.0000       5.049275       137.3978 
 373   0.0000       5.059216       137.6683 
 374   0.0000       5.084679       138.3612 
 375   0.0000       5.128697       139.5589 
 376   0.0000       5.148858       140.1076 
 377   0.0000       5.186533       141.1327 
 378   0.0000       5.210114       141.7744 
 379   0.0000       5.258211       143.0832 
 380   0.0000       5.279749       143.6693 
 381   0.0000       5.347784       145.5206 
 382   0.0000       5.399002       146.9143 
 383   0.0000       5.442192       148.0896 
 384   0.0000       5.460936       148.5996 
 385   0.0000       5.638186       153.4228 
 386   0.0000       5.657681       153.9533 
 387   0.0000       5.771652       157.0546 
 388   0.0000       5.949232       161.8868 
 389   0.0000       6.041747       164.4043 
 390   0.0000       6.123484       166.6285 
 391   0.0000       6.178567       168.1274 
 392   0.0000       6.195328       168.5834 
 393   0.0000       6.318396       171.9323 
 394   0.0000       6.414470       174.5466 
 395   0.0000       6.515381       177.2925 
 396   0.0000       6.546293       178.1337 
 397   0.0000       6.584135       179.1634 
 398   0.0000       6.739159       183.3818 
 399   0.0000       6.758712       183.9139 
 400   0.0000       6.982092       189.9924 
 401   0.0000       7.109581       193.4615 
 402   0.0000      21.793317       593.0263 
 403   0.0000      21.941879       597.0689 
 404   0.0000      22.131136       602.2188 
 405   0.0000      22.307638       607.0217 
 406   0.0000      22.364477       608.5684 
 407   0.0000      22.500497       612.2696 
 408   0.0000      22.592270       614.7669 
 409   0.0000      23.028668       626.6419 
 410   0.0000      31.352568       853.1467 
 411   0.0000      43.330519      1179.0834 
 412   0.0000      43.557885      1185.2703 

                    ********************************
                    * MULLIKEN POPULATION ANALYSIS *
                    ********************************

-----------------------
MULLIKEN ATOMIC CHARGES
-----------------------
   0 C :   -0.170567
   1 C :   -0.386828
   2 C :    0.216617
   3 C :   -0.244444
   4 C :    0.205860
   5 C :    0.140419
   6 O :   -0.375679
   7 O :   -0.324495
   8 C :   -0.292495
   9 C :   -0.200031
  10 N :   -0.259427
  11 H :    0.319216
  12 H :    0.315213
  13 H :    0.305606
  14 H :    0.131237
  15 H :    0.117886
  16 H :    0.123617
  17 H :    0.332811
  18 H :    0.333508
  19 H :    0.171830
  20 H :    0.172285
  21 H :    0.185355
  22 H :    0.182504
Sum of atomic charges:    1.0000000

--------------------------------
MULLIKEN REDUCED ORBITAL CHARGES
--------------------------------
  0 C s       :     3.198959  s :     3.198959
      pz      :     1.003750  p :     2.888003
      px      :     0.949914
      py      :     0.934339
      dz2     :     0.007300  d :     0.076720
      dxz     :     0.017335
      dyz     :     0.011907
      dx2y2   :     0.015445
      dxy     :     0.024734
      f0      :     0.001118  f :     0.006886
      f+1     :     0.001024
      f-1     :     0.000459
      f+2     :     0.000790
      f-2     :     0.000837
      f+3     :     0.000781
      f-3     :     0.001877
  1 C s       :     3.352014  s :     3.352014
      pz      :     1.080596  p :     2.947869
      px      :     0.991649
      py      :     0.875624
      dz2     :     0.006599  d :     0.079973
      dxz     :     0.019751
      dyz     :     0.010904
      dx2y2   :     0.020461
      dxy     :     0.022257
      f0      :     0.001053  f :     0.006972
      f+1     :     0.001095
      f-1     :     0.000439
      f+2     :     0.000769
      f-2     :     0.000882
      f+3     :     0.000751
      f-3     :     0.001983
  2 C s       :     3.089185  s :     3.089185
      pz      :     0.941450  p :     2.510941
      px      :     0.716043
      py      :     0.853447
      dz2     :     0.018384  d :     0.168552
      dxz     :     0.037950
      dyz     :     0.022967
      dx2y2   :     0.031482
      dxy     :     0.057769
      f0      :     0.001619  f :     0.014705
      f+1     :     0.002068
      f-1     :     0.000922
      f+2     :     0.002241
      f-2     :     0.001507
      f+3     :     0.001817
      f-3     :     0.004531
  3 C s       :     3.240462  s :     3.240462
      pz      :     0.999660  p :     2.912866
      px      :     0.995216
      py      :     0.917991
      dz2     :     0.010498  d :     0.084183
      dxz     :     0.016984
      dyz     :     0.008931
      dx2y2   :     0.015840
      dxy     :     0.031931
      f0      :     0.000788  f :     0.006933
      f+1     :     0.001082
      f-1     :     0.000925
      f+2     :     0.000914
      f-2     :     0.000571
      f+3     :     0.000899
      f-3     :     0.001753
  4 C s       :     3.153417  s :     3.153417
      pz      :     0.941699  p :     2.500156
      px      :     0.772580
      py      :     0.785877
      dz2     :     0.010410  d :     0.131348
      dxz     :     0.019272
      dyz     :     0.028224
      dx2y2   :     0.039755
      dxy     :     0.033688
      f0      :     0.001073  f :     0.009218
      f+1     :     0.000866
      f-1     :     0.000835
      f+2     :     0.000949
      f-2     :     0.001341
      f+3     :     0.001147
      f-3     :     0.003006
  5 C s       :     3.059664  s :     3.059664
      pz      :     0.951762  p :     2.609167
      px      :     0.853790
      py      :     0.803615
      dz2     :     0.012717  d :     0.175387
      dxz     :     0.029489
      dyz     :     0.039355
      dx2y2   :     0.057236
      dxy     :     0.036590
      f0      :     0.001720  f :     0.015363
      f+1     :     0.001602
      f-1     :     0.001433
      f+2     :     0.001302
      f-2     :     0.002405
      f+3     :     0.001982
      f-3     :     0.004919
  6 O s       :     3.774003  s :     3.774003
      pz      :     1.757769  p :     4.569746
      px      :     1.354191
      py      :     1.457786
      dz2     :     0.004107  d :     0.030264
      dxz     :     0.006020
      dyz     :     0.002211
      dx2y2   :     0.011007
      dxy     :     0.006919
      f0      :     0.000267  f :     0.001665
      f+1     :     0.000314
      f-1     :     0.000218
      f+2     :     0.000220
      f-2     :     0.000110
      f+3     :     0.000310
      f-3     :     0.000226
  7 O s       :     3.769480  s :     3.769480
      pz      :     1.758202  p :     4.521288
      px      :     1.301464
      py      :     1.461622
      dz2     :     0.003808  d :     0.032158
      dxz     :     0.002898
      dyz     :     0.006198
      dx2y2   :     0.010696
      dxy     :     0.008557
      f0      :     0.000294  f :     0.001568
      f+1     :     0.000250
      f-1     :     0.000213
      f+2     :     0.000125
      f-2     :     0.000152
      f+3     :     0.000244
      f-3     :     0.000291
  8 C s       :     3.244145  s :     3.244145
      pz      :     0.909196  p :     2.955991
      px      :     0.895512
      py      :     1.151283
      dz2     :     0.013575  d :     0.087106
      dxz     :     0.025878
      dyz     :     0.015600
      dx2y2   :     0.014934
      dxy     :     0.017119
      f0      :     0.000774  f :     0.005253
      f+1     :     0.001052
      f-1     :     0.000345
      f+2     :     0.001343
      f-2     :     0.000493
      f+3     :     0.000391
      f-3     :     0.000856
  9 C s       :     3.255772  s :     3.255772
      pz      :     0.952706  p :     2.834766
      px      :     1.064060
      py      :     0.818001
      dz2     :     0.021952  d :     0.102240
      dxz     :     0.009639
      dyz     :     0.033802
      dx2y2   :     0.026793
      dxy     :     0.010054
      f0      :     0.000930  f :     0.007253
      f+1     :     0.000479
      f-1     :     0.001371
      f+2     :     0.001698
      f-2     :     0.001304
      f+3     :     0.000771
      f-3     :     0.000699
 10 N s       :     3.427313  s :     3.427313
      pz      :     1.255814  p :     3.784124
      px      :     1.283902
      py      :     1.244408
      dz2     :     0.008815  d :     0.046099
      dxz     :     0.009996
      dyz     :     0.008322
      dx2y2   :     0.012458
      dxy     :     0.006509
      f0      :     0.000067  f :     0.001891
      f+1     :     0.000191
      f-1     :     0.000330
      f+2     :     0.000714
      f-2     :     0.000175
      f+3     :     0.000278
      f-3     :     0.000136
 11 H s       :     0.646874  s :     0.646874
      pz      :     0.007676  p :     0.033910
      px      :     0.020056
      py      :     0.006178
 12 H s       :     0.652080  s :     0.652080
      pz      :     0.015203  p :     0.032707
[...]
 210   0.0000       3.255581        88.5889 
 211   0.0000       3.355207        91.2998 
 212   0.0000       3.585986        97.5796 
 213   0.0000       3.654329        99.4393 

                    ********************************
                    * MULLIKEN POPULATION ANALYSIS *
                    ********************************

-----------------------
MULLIKEN ATOMIC CHARGES
-----------------------
   0 C :   -0.056024
   1 C :   -0.072992
   2 C :    0.117010
   3 C :   -0.013405
   4 C :   -0.035422
   5 C :    0.101212
   6 O :   -0.173868
   7 O :   -0.141225
   8 C :    0.005890
   9 C :    0.007646
  10 N :    0.044978
  11 H :    0.203136
  12 H :    0.205979
  13 H :    0.203187
  14 H :   -0.010948
  15 H :   -0.024802
  16 H :   -0.016820
  17 H :    0.198097
  18 H :    0.187438
  19 H :    0.038088
  20 H :    0.049519
  21 H :    0.091254
  22 H :    0.092072
Sum of atomic charges:    1.0000000

--------------------------------
MULLIKEN REDUCED ORBITAL CHARGES
--------------------------------
  0 C s       :     3.252222  s :     3.252222
      pz      :     1.035839  p :     2.772889
      px      :     0.905054
      py      :     0.831996
      dz2     :     0.002643  d :     0.030912
      dxz     :     0.005610
      dyz     :     0.003743
      dx2y2   :     0.007934
      dxy     :     0.010982
  1 C s       :     3.331811  s :     3.331811
      pz      :     1.049032  p :     2.711093
      px      :     0.934716
      py      :     0.727346
      dz2     :     0.002686  d :     0.030088
      dxz     :     0.005846
      dyz     :     0.003507
      dx2y2   :     0.010118
      dxy     :     0.007930
  2 C s       :     2.964121  s :     2.964121
      pz      :     1.023589  p :     2.847255
      px      :     0.803017
      py      :     1.020649
      dz2     :     0.006198  d :     0.071614
      dxz     :     0.016946
      dyz     :     0.007078
      dx2y2   :     0.022083
      dxy     :     0.019308
  3 C s       :     3.209845  s :     3.209845
      pz      :     1.024688  p :     2.771607
      px      :     0.904808
      py      :     0.842111
      dz2     :     0.002827  d :     0.031953
      dxz     :     0.005732
      dyz     :     0.003638
      dx2y2   :     0.009094
      dxy     :     0.010663
  4 C s       :     3.039300  s :     3.039300
      pz      :     1.050361  p :     2.955391
      px      :     0.940910
      py      :     0.964120
      dz2     :     0.002933  d :     0.040731
      dxz     :     0.004942
      dyz     :     0.008151
      dx2y2   :     0.012899
      dxy     :     0.011806
  5 C s       :     2.984038  s :     2.984038
      pz      :     1.009766  p :     2.842286
      px      :     0.931482
      py      :     0.901039
      dz2     :     0.005703  d :     0.072463
      dxz     :     0.009980
      dyz     :     0.014548
      dx2y2   :     0.020409
      dxy     :     0.021823
  6 O s       :     3.679717  s :     3.679717
      pz      :     1.789128  p :     4.481153
      px      :     1.313090
      py      :     1.378935
      dz2     :     0.001911  d :     0.012998
      dxz     :     0.002515
      dyz     :     0.000686
      dx2y2   :     0.005465
      dxy     :     0.002420
  7 O s       :     3.678782  s :     3.678782
      pz      :     1.770403  p :     4.448517
      px      :     1.215046
      py      :     1.463068
      dz2     :     0.001910  d :     0.013927
      dxz     :     0.000713
      dyz     :     0.002749
      dx2y2   :     0.004224
      dxy     :     0.004330
  8 C s       :     2.966878  s :     2.966878
      pz      :     0.952473  p :     2.994563
      px      :     1.036776
      py      :     1.005314
      dz2     :     0.004777  d :     0.032669
      dxz     :     0.009179
      dyz     :     0.007208
      dx2y2   :     0.005883
      dxy     :     0.005622
  9 C s       :     3.045166  s :     3.045166
      pz      :     1.086060  p :     2.903789
      px      :     0.708484
      py      :     1.109245
      dz2     :     0.008537  d :     0.043399
      dxz     :     0.006849
      dyz     :     0.008637
      dx2y2   :     0.014535
      dxy     :     0.004840
 10 N s       :     3.298500  s :     3.298500
      pz      :     1.193969  p :     3.639020
      px      :     1.246005
      py      :     1.199046
      dz2     :     0.001730  d :     0.017502
      dxz     :     0.005107
      dyz     :     0.003334
      dx2y2   :     0.002622
      dxy     :     0.004709
 11 H s       :     0.752834  s :     0.752834
      pz      :     0.010512  p :     0.044030
      px      :     0.009877
      py      :     0.023642
 12 H s       :     0.749966  s :     0.749966
      pz      :     0.021587  p :     0.044055
      px      :     0.012199
      py      :     0.010269
 13 H s       :     0.752751  s :     0.752751
      pz      :     0.018493  p :     0.044062
      px      :     0.008054
      py      :     0.017515
 14 H s       :     0.987401  s :     0.987401
      pz      :     0.005641  p :     0.023548
      px      :     0.005604
      py      :     0.012303
 15 H s       :     1.001438  s :     1.001438
      pz      :     0.005765  p :     0.023364
      px      :     0.005268
      py      :     0.012331
 16 H s       :     0.993477  s :     0.993477
      pz      :     0.005582  p :     0.023343
      px      :     0.006238
      py      :     0.011523
 17 H s       :     0.733395  s :     0.733395
      pz      :     0.017599  p :     0.068508
      px      :     0.016913
      py      :     0.033997
 18 H s       :     0.742468  s :     0.742468
      pz      :     0.018382  p :     0.070094
      px      :     0.035828
      py      :     0.015884
 19 H s       :     0.939157  s :     0.939157
      pz      :     0.005785  p :     0.022755
      px      :     0.004639
      py      :     0.012332
 20 H s       :     0.927416  s :     0.927416
      pz      :     0.010165  p :     0.023065
      px      :     0.004406
      py      :     0.008493
 21 H s       :     0.886851  s :     0.886851
      pz      :     0.009832  p :     0.021895
      px      :     0.002855
      py      :     0.009208
 22 H s       :     0.885892  s :     0.885892
      pz      :     0.005346  p :     0.022036
      px      :     0.003970
      py      :     0.012720


                     *******************************
                     * LOEWDIN POPULATION ANALYSIS *
                     *******************************

----------------------
LOEWDIN ATOMIC CHARGES
----------------------
   0 C :   -0.058044
   1 C :   -0.055721
   2 C :    0.009561
   3 C :   -0.044724
   4 C :   -0.060269
   5 C :    0.026252
   6 O :   -0.029472
   7 O :   -0.021316
   8 C :   -0.040142
   9 C :    0.045766
  10 N :    0.300741
  11 H :    0.140114
  12 H :    0.143264
  13 H :    0.140460
  14 H :    0.038884
  15 H :    0.033590
  16 H :    0.029590
  17 H :    0.110786
  18 H :    0.098477
  19 H :    0.040233
  20 H :    0.042177
  21 H :    0.055669
  22 H :    0.054122

-------------------------------
LOEWDIN REDUCED ORBITAL CHARGES
-------------------------------
  0 C s       :     2.860086  s :     2.860086
      pz      :     1.021506  p :     3.110842
      px      :     1.058483
      py      :     1.030853
      dz2     :     0.006741  d :     0.087116
      dxz     :     0.012777
      dyz     :     0.007636
      dx2y2   :     0.027059
      dxy     :     0.032901
  1 C s       :     2.858784  s :     2.858784
      pz      :     1.034246  p :     3.111632
      px      :     1.042194
      py      :     1.035192
      dz2     :     0.006669  d :     0.085304
      dxz     :     0.013069
      dyz     :     0.007368
      dx2y2   :     0.031106
      dxy     :     0.027092
  2 C s       :     2.836710  s :     2.836710
      pz      :     1.002988  p :     2.984279
      px      :     0.885082
      py      :     1.096208
      dz2     :     0.013362  d :     0.169450
      dxz     :     0.033821
      dyz     :     0.015003
      dx2y2   :     0.057143
      dxy     :     0.050121
  3 C s       :     2.859652  s :     2.859652
      pz      :     1.016450  p :     3.097158
      px      :     1.047764
      py      :     1.032944
      dz2     :     0.006834  d :     0.087914
      dxz     :     0.012807
      dyz     :     0.007832
      dx2y2   :     0.028293
      dxy     :     0.032148
  4 C s       :     2.846065  s :     2.846065
      pz      :     1.029924  p :     3.108016
      px      :     0.994492
      py      :     1.083599
      dz2     :     0.007279  d :     0.106189
      dxz     :     0.009618
      dyz     :     0.017613
      dx2y2   :     0.038111
      dxy     :     0.033567
  5 C s       :     2.836125  s :     2.836125
      pz      :     0.994333  p :     2.968311
      px      :     1.031487
      py      :     0.942491
      dz2     :     0.012392  d :     0.169311
      dxz     :     0.020401
      dyz     :     0.029070
      dx2y2   :     0.053152
      dxy     :     0.054296
  6 O s       :     3.415721  s :     3.415721
      pz      :     1.759964  p :     4.587969
      px      :     1.363890
      py      :     1.464115
      dz2     :     0.003785  d :     0.025782
      dxz     :     0.004299
      dyz     :     0.000437
      dx2y2   :     0.012136
      dxy     :     0.005125
  7 O s       :     3.431862  s :     3.431862
      pz      :     1.745724  p :     4.562796
      px      :     1.300722
      py      :     1.516351
      dz2     :     0.003736  d :     0.026658
      dxz     :     0.001488
      dyz     :     0.003445
      dx2y2   :     0.008961
      dxy     :     0.009028
  8 C s       :     2.836016  s :     2.836016
      pz      :     1.007706  p :     3.116274
      px      :     1.043109
      py      :     1.065459
      dz2     :     0.013369  d :     0.087852
      dxz     :     0.023739
      dyz     :     0.019745
      dx2y2   :     0.017717
      dxy     :     0.013282
  9 C s       :     2.856085  s :     2.856085
      pz      :     1.082383  p :     2.995513
      px      :     0.807245
      py      :     1.105885
      dz2     :     0.019554  d :     0.102636
      dxz     :     0.016387
      dyz     :     0.021034
      dx2y2   :     0.035835
      dxy     :     0.009825
 10 N s       :     3.003053  s :     3.003053
      pz      :     1.209921  p :     3.649244
      px      :     1.229426
      py      :     1.209897
      dz2     :     0.005701  d :     0.046962
      dxz     :     0.011770
      dyz     :     0.010349
      dx2y2   :     0.009280
      dxy     :     0.009861
 11 H s       :     0.750003  s :     0.750003
      pz      :     0.022955  p :     0.109883
      px      :     0.027582
      py      :     0.059346
 12 H s       :     0.746461  s :     0.746461
      pz      :     0.053365  p :     0.110275
      px      :     0.034733
      py      :     0.022177
 13 H s       :     0.749712  s :     0.749712
      pz      :     0.045700  p :     0.109828
      px      :     0.022015
      py      :     0.042112
 14 H s       :     0.890643  s :     0.890643
      pz      :     0.016634  p :     0.070473
      px      :     0.017131
      py      :     0.036708
 15 H s       :     0.895365  s :     0.895365
      pz      :     0.017244  p :     0.071045
      px      :     0.016359
      py      :     0.037443
 16 H s       :     0.900930  s :     0.900930
      pz      :     0.016088  p :     0.069479
      px      :     0.018745
      py      :     0.034646
 17 H s       :     0.716639  s :     0.716639
      pz      :     0.046130  p :     0.172575
      px      :     0.036947
      py      :     0.089499
 18 H s       :     0.726383  s :     0.726383
      pz      :     0.047177  p :     0.175140
      px      :     0.086090
      py      :     0.041874
 19 H s       :     0.891798  s :     0.891798
      pz      :     0.015539  p :     0.067969
      px      :     0.015920
      py      :     0.036509
 20 H s       :     0.889107  s :     0.889107
      pz      :     0.029706  p :     0.068716
      px      :     0.014864
      py      :     0.024146
 21 H s       :     0.875508  s :     0.875508
      pz      :     0.032180  p :     0.068823
      px      :     0.009267
      py      :     0.027376
 22 H s       :     0.876868  s :     0.876868
      pz      :     0.017510  p :     0.069010
      px      :     0.012392
      py      :     0.039108


                      *****************************
                      * MAYER POPULATION ANALYSIS *
                      *****************************

  NA   - Mulliken gross atomic population
  ZA   - Total nuclear charge
  QA   - Mulliken gross atomic charge
  VA   - Mayer's total valence
  BVA  - Mayer's bonded valence
  FA   - Mayer's free valence

  ATOM       NA         ZA         QA         VA         BVA        FA
  0 C      6.0560     6.0000    -0.0560     3.8206     3.8206    -0.0000
  1 C      6.0730     6.0000    -0.0730     3.8357     3.8357    -0.0000
  2 C      5.8830     6.0000     0.1170     3.9152     3.9152     0.0000
  3 C      6.0134     6.0000    -0.0134     3.8664     3.8664    -0.0000
  4 C      6.0354     6.0000    -0.0354     3.8782     3.8782     0.0000
  5 C      5.8988     6.0000     0.1012     4.1257     4.1257    -0.0000
  6 O      8.1739     8.0000    -0.1739     2.2952     2.2952    -0.0000
  7 O      8.1412     8.0000    -0.1412     2.3438     2.3438    -0.0000
  8 C      5.9941     6.0000     0.0059     4.0195     4.0195     0.0000
  9 C      5.9924     6.0000     0.0076     3.9293     3.9293    -0.0000
 10 N      6.9550     7.0000     0.0450     3.7482     3.7482     0.0000
 11 H      0.7969     1.0000     0.2031     0.9708     0.9708     0.0000
 12 H      0.7940     1.0000     0.2060     0.9638     0.9638    -0.0000
 13 H      0.7968     1.0000     0.2032     0.9719     0.9719    -0.0000
 14 H      1.0109     1.0000    -0.0109     0.9928     0.9928    -0.0000
 15 H      1.0248     1.0000    -0.0248     1.0041     1.0041    -0.0000
 16 H      1.0168     1.0000    -0.0168     0.9868     0.9868    -0.0000
 17 H      0.8019     1.0000     0.1981     1.0027     1.0027    -0.0000
 18 H      0.8126     1.0000     0.1874     1.0297     1.0297    -0.0000
 19 H      0.9619     1.0000     0.0381     0.9931     0.9931    -0.0000
 20 H      0.9505     1.0000     0.0495     0.9857     0.9857    -0.0000
 21 H      0.9087     1.0000     0.0913     0.9871     0.9871    -0.0000
 22 H      0.9079     1.0000     0.0921     0.9900     0.9900     0.0000

  Mayer bond orders larger than 0.100000
B(  0-C ,  2-C ) :   1.3274 B(  0-C ,  3-C ) :   1.3519 B(  0-C , 14-H ) :   0.9822 
B(  1-C ,  4-C ) :   1.3031 B(  1-C ,  5-C ) :   1.3758 B(  1-C , 15-H ) :   0.9888 
B(  2-C ,  5-C ) :   1.2683 B(  2-C ,  6-O ) :   1.2003 B(  3-C ,  4-C ) :   1.3764 
B(  3-C , 16-H ) :   0.9790 B(  4-C ,  8-C ) :   1.0553 B(  5-C ,  7-O ) :   1.2928 
B(  6-O , 17-H ) :   0.9452 B(  7-O , 18-H ) :   0.9402 B(  8-C ,  9-C ) :   1.0816 
B(  8-C , 19-H ) :   0.9188 B(  8-C , 20-H ) :   0.9160 B(  9-C , 10-N ) :   0.9374 
B(  9-C , 21-H ) :   0.9330 B(  9-C , 22-H ) :   0.9348 B( 10-N , 11-H ) :   0.9318 
B( 10-N , 12-H ) :   0.9309 B( 10-N , 13-H ) :   0.9315 

-------
TIMINGS
-------

Total SCF time: 0 days 0 hours 0 min 33 sec 

Total time                  ....      33.171 sec
Sum of individual times     ....      32.954 sec  ( 99.3%)

Fock matrix formation       ....      32.093 sec  ( 96.7%)
  XC integration            ....       3.459 sec  ( 10.8% of F)
    Basis function eval.    ....       1.056 sec  ( 30.5% of XC)
    Density eval.           ....       0.853 sec  ( 24.7% of XC)
    XC-Functional eval.     ....       0.176 sec  (  5.1% of XC)
    XC-Potential eval.      ....       0.781 sec  ( 22.6% of XC)
Diagonalization             ....       0.073 sec  (  0.2%)
Density matrix formation    ....       0.007 sec  (  0.0%)
Population analysis         ....       0.009 sec  (  0.0%)
Initial guess               ....       0.011 sec  (  0.0%)
Orbital Transformation      ....       0.000 sec  (  0.0%)
Orbital Orthonormalization  ....       0.008 sec  (  0.0%)
DIIS solution               ....       0.043 sec  (  0.1%)
SOSCF solution              ....       0.088 sec  (  0.3%)
Grid generation             ....       0.630 sec  (  1.9%)

Maximum memory used throughout the entire SCF-calculation: 238.9 MB


-------------------------------------------------------------------------------
                          DFT DISPERSION CORRECTION                            
                                                                               
                              DFTD3 V3.1  Rev 1                                
                          USING Becke-Johnson damping                          
-------------------------------------------------------------------------------
The PBE functional is recognized
Active option DFTDOPT                   ...         4   

molecular C6(AA) [au] = 4881.783159 


            DFT-D V3
 parameters
 s6 scaling factor         :     1.0000 
 a1 scaling factor         :     0.4289 
 s8 scaling factor         :     0.7875 
 a2 scaling factor         :     4.4407 
 ad hoc parameters k1-k3   :    16.0000     1.3333    -4.0000 

 Edisp/kcal,au: -14.627850720933  -0.023310961452 
 E6   /kcal   : -10.383928460 
 E8   /kcal   :  -4.243922261 
 % E8         :  29.012616700 

-------------------------   ----------------
Dispersion correction           -0.023310961
-------------------------   ----------------


-------------------------   --------------------
FINAL SINGLE POINT ENERGY      -516.059521310903
-------------------------   --------------------


                            ***************************************
                            *     ORCA property calculations      *
                            ***************************************

                                    ---------------------
                                    Active property flags
                                    ---------------------
   (+) Dipole Moment


------------------------------------------------------------------------------
                       ORCA ELECTRIC PROPERTIES CALCULATION
------------------------------------------------------------------------------

Dipole Moment Calculation                       ... on
Quadrupole Moment Calculation                   ... off
Polarizability Calculation                      ... off
GBWName                                         ... M0005.gbw
Electron density                                ... M0005.scfp
The origin for moment calculation is the CENTER OF MASS  = (-0.189921,  0.023633  0.007885)

-------------
DIPOLE MOMENT
-------------
                                X             Y             Z
Electronic contribution:     -9.79360       1.52741      -0.02054
Nuclear contribution   :     15.76343      -1.96154      -0.65446
                        -----------------------------------------
Total Dipole Moment    :      5.96982      -0.43413      -0.67500
                        -----------------------------------------
Magnitude (a.u.)       :      6.02352
Magnitude (Debye)      :     15.31058



--------------------
Rotational spectrum 
--------------------
 
Rotational constants in cm-1:     0.085412     0.017995     0.015562 
Rotational constants in MHz :  2560.581315   539.469564   466.537407 

 Dipole components along the rotational axes: 
x,y,z [a.u.] :    -5.972762    -0.376977    -0.683265 
x,y,z [Debye]:   -15.181554    -0.958198    -1.736723 

 

Timings for individual modules:

Sum of individual times         ...       34.046 sec (=   0.567 min)
GTO integral calculation        ...        0.501 sec (=   0.008 min)   1.5 %
SCF iterations                  ...       33.546 sec (=   0.559 min)  98.5 %



                             ****ORCA TERMINATED NORMALLY****
TOTAL RUN TIME: 0 days 0 hours 5 minutes 30 seconds 518 msec
