
                                 *****************
                                 * O   R   C   A *
                                 *****************

                                            #,                                       
                                            ###                                      
                                            ####                                     
                                            #####                                    
                                            ######                                   
                                           ########,                                 
                                     ,,################,,,,,                         
                               ,,#################################,,                 
                          ,,##########################################,,             
                       ,#########################################, ''#####,          
                    ,#############################################,,   '####,        
                  ,##################################################,,,,####,       
                ,###########''''           ''''###############################       
              ,#####''   ,,,,##########,,,,          '''####'''          '####       
            ,##' ,,,,###########################,,,                        '##       
           ' ,,###''''                  '''############,,,                           
         ,,##''                                '''############,,,,        ,,,,,,###''
      ,#''                                            '''#######################'''  
     '                                                          ''''####''''         
             ,#######,   #######,   ,#######,      ##                                
            ,#'     '#,  ##    ##  ,#'     '#,    #''#        ######   ,####,        
            ##       ##  ##   ,#'  ##            #'  '#       #        #'  '#        
            ##       ##  #######   ##           ,######,      #####,   #    #        
            '#,     ,#'  ##    ##  '#,     ,#' ,#      #,         ##   #,  ,#        
             '#######'   ##     ##  '#######'  #'      '#     #####' # '####'        



                  #######################################################
                  #                        -***-                        #
                  #          Department of theory and spectroscopy      #
                  #    Directorship and core code : Frank Neese         #
                  #        Max Planck Institute fuer Kohlenforschung    #
                  #                Kaiser Wilhelm Platz 1               #
                  #                 D-45470 Muelheim/Ruhr               #
                  #                      Germany                        #
                  #                                                     #
                  #                  All rights reserved                #
                  #                        -***-                        #
                  #######################################################


                         Program Version 5.0.1 -  RELEASE  -


 With contributions from (in alphabetic order):
   Daniel Aravena         : Magnetic Suceptibility
   Michael Atanasov       : Ab Initio Ligand Field Theory (pilot matlab implementation)
   Alexander A. Auer      : GIAO ZORA, VPT2 properties, NMR spectrum
   Ute Becker             : Parallelization
   Giovanni Bistoni       : ED, misc. LED, open-shell LED, HFLD
   Martin Brehm           : Molecular dynamics
   Dmytro Bykov           : SCF Hessian
   Vijay G. Chilkuri      : MRCI spin determinant printing, contributions to CSF-ICE
   Dipayan Datta          : RHF DLPNO-CCSD density
   Achintya Kumar Dutta   : EOM-CC, STEOM-CC
   Dmitry Ganyushin       : Spin-Orbit,Spin-Spin,Magnetic field MRCI
   Miquel Garcia          : C-PCM and meta-GGA Hessian, CC/C-PCM, Gaussian charge scheme
   Yang Guo               : DLPNO-NEVPT2, F12-NEVPT2, CIM, IAO-localization
   Andreas Hansen         : Spin unrestricted coupled pair/coupled cluster methods
   Benjamin Helmich-Paris : MC-RPA, TRAH-SCF, COSX integrals
   Lee Huntington         : MR-EOM, pCC
   Robert Izsak           : Overlap fitted RIJCOSX, COSX-SCS-MP3, EOM
   Marcus Kettner         : VPT2
   Christian Kollmar      : KDIIS, OOCD, Brueckner-CCSD(T), CCSD density, CASPT2, CASPT2-K
   Simone Kossmann        : Meta GGA functionals, TD-DFT gradient, OOMP2, MP2 Hessian
   Martin Krupicka        : Initial AUTO-CI
   Lucas Lang             : DCDCAS
   Marvin Lechner         : AUTO-CI (C++ implementation), FIC-MRCC
   Dagmar Lenk            : GEPOL surface, SMD
   Dimitrios Liakos       : Extrapolation schemes; Compound Job, initial MDCI parallelization
   Dimitrios Manganas     : Further ROCIS development; embedding schemes
   Dimitrios Pantazis     : SARC Basis sets
   Anastasios Papadopoulos: AUTO-CI, single reference methods and gradients
   Taras Petrenko         : DFT Hessian,TD-DFT gradient, ASA, ECA, R-Raman, ABS, FL, XAS/XES, NRVS
   Peter Pinski           : DLPNO-MP2, DLPNO-MP2 Gradient
   Christoph Reimann      : Effective Core Potentials
   Marius Retegan         : Local ZFS, SOC
   Christoph Riplinger    : Optimizer, TS searches, QM/MM, DLPNO-CCSD(T), (RO)-DLPNO pert. Triples
   Tobias Risthaus        : Range-separated hybrids, TD-DFT gradient, RPA, STAB
   Michael Roemelt        : Original ROCIS implementation
   Masaaki Saitow         : Open-shell DLPNO-CCSD energy and density
   Barbara Sandhoefer     : DKH picture change effects
   Avijit Sen             : IP-ROCIS
   Kantharuban Sivalingam : CASSCF convergence, NEVPT2, FIC-MRCI
   Bernardo de Souza      : ESD, SOC TD-DFT
   Georgi Stoychev        : AutoAux, RI-MP2 NMR, DLPNO-MP2 response
   Willem Van den Heuvel  : Paramagnetic NMR
   Boris Wezisla          : Elementary symmetry handling
   Frank Wennmohs         : Technical directorship


 We gratefully acknowledge several colleagues who have allowed us to
 interface, adapt or use parts of their codes:
   Stefan Grimme, W. Hujo, H. Kruse, P. Pracht,  : VdW corrections, initial TS optimization,
                  C. Bannwarth, S. Ehlert          DFT functionals, gCP, sTDA/sTD-DF
   Ed Valeev, F. Pavosevic, A. Kumar             : LibInt (2-el integral package), F12 methods
   Garnet Chan, S. Sharma, J. Yang, R. Olivares  : DMRG
   Ulf Ekstrom                                   : XCFun DFT Library
   Mihaly Kallay                                 : mrcc  (arbitrary order and MRCC methods)
   Jiri Pittner, Ondrej Demel                    : Mk-CCSD
   Frank Weinhold                                : gennbo (NPA and NBO analysis)
   Christopher J. Cramer and Donald G. Truhlar   : smd solvation model
   Lars Goerigk                                  : TD-DFT with DH, B97 family of functionals
   V. Asgeirsson, H. Jonsson                     : NEB implementation
   FAccTs GmbH                                   : IRC, NEB, NEB-TS, DLPNO-Multilevel, CI-OPT
                                                   MM, QMMM, 2- and 3-layer-ONIOM, Crystal-QMMM,
                                                   LR-CPCM, SF, NACMEs, symmetry and pop. for TD-DFT,
                                                   nearIR, NL-DFT gradient (VV10), updates on ESD,
                                                   ML-optimized integration grids
   S Lehtola, MJT Oliveira, MAL Marques          : LibXC Library
   Liviu Ungur et al                             : ANISO software


 Your calculation uses the libint2 library for the computation of 2-el integrals
 For citations please refer to: http://libint.valeyev.net

 Your ORCA version has been built with support for libXC version: 5.1.0
 For citations please refer to: https://tddft.org/programs/libxc/

 This ORCA versions uses:
   CBLAS   interface :  Fast vector & matrix operations
   LAPACKE interface :  Fast linear algebra routines
   SCALAPACK package :  Parallel linear algebra routines
   Shared memory     :  Shared parallel matrices
   BLAS/LAPACK       :  OpenBLAS 0.3.15  USE64BITINT DYNAMIC_ARCH NO_AFFINITY Haswell SINGLE_THREADED
        Core in use  :  Haswell
   Copyright (c) 2011-2014, The OpenBLAS Project


Your calculation utilizes the atom-pairwise dispersion correction
with the Becke-Johnson damping scheme (D3BJ)
Cite in your paper:
S.Grimme, S.Ehrlich, L.Goerigk, J Comput Chem, (2011), 32, 1456–1465 
S.Grimme, J.Antony, S.Ehrlich and H.Krieg, J.Chem.Phys., 132, (2010), 154104 
   

================================================================================

----- Orbital basis set information -----
Your calculation utilizes the basis: def2-TZVP
   F. Weigend and R. Ahlrichs, Phys. Chem. Chem. Phys. 7, 3297 (2005).

----- AuxJ basis set information -----
Your calculation utilizes the auxiliary basis: def2/J
   F. Weigend, Phys. Chem. Chem. Phys. 8, 1057 (2006).

================================================================================
                                        WARNINGS
                       Please study these warnings very carefully!
================================================================================


WARNING: your system is open-shell and RHF/RKS was chosen
  ===> : WILL SWITCH to UHF/UKS


WARNING: The environment variable RSH_COMMAND is not set!
  ===> : All Displacements for the Numerical Hessian calculation
         will be started on localhost

WARNING: Geometry Optimization
  ===> : Switching off AutoStart
         For restart on a previous wavefunction, please use MOREAD

INFO   : the flag for use of the SHARK integral package has been found!

================================================================================
                                       INPUT FILE
================================================================================
NAME = ex.inp
|  1> ! PBE D3 def2-TZVP opt numfreq 
|  2> %base "4_2x_deprotonated"
|  3> %pal nprocs=3 end
|  4> %geom maxiter=75 end
|  5> *xyz -2 2
|  6>   O   -2.09788163153052     -2.09890986008133      0.20561768850800
|  7>   O   -3.43690287443130      0.37458169620901     -0.37464055445547
|  8>   N   2.74714851387580     -0.95738441674978     -1.24122002944174
|  9>   C   2.13910901353866      0.33244031575048      0.88692805166422
| 10>   C   0.66242850411439      0.32031993890838      0.59935381178182
| 11>   C   3.01956342883086      0.21381426472055     -0.38028748478801
| 12>   C   -0.07286728548965     -0.88834056591598      0.52859156778620
| 13>   C   -0.00567034371434      1.51558448488413      0.30757503220741
| 14>   C   -1.46766849762815     -0.98686053429398      0.19817843068186
| 15>   C   -1.36909288196453      1.48096198014225     -0.06238257425885
| 16>   C   -2.14021292253490      0.30227613396050     -0.12214315450453
| 17>   H   2.42696125865013      1.27889690642109      1.38985372013362
| 18>   H   2.41252824514135     -0.49364144392451      1.57669826351066
| 19>   H   4.09098102647745      0.19484279018232     -0.09005044494918
| 20>   H   2.85393692856106      1.10682566193406     -1.00657822854648
| 21>   H   0.40357373483966     -1.83583963943646      0.81871314336350
| 22>   H   0.54140349782036      2.46747611941164      0.34270971710257
| 23>   H   -1.90486312789269      2.41256698903317     -0.28832715820589
| 24>   H   1.71905523181981     -0.94182293150767     -1.35818663910314
| 25>   H   2.89661676242031     -1.79817688472750     -0.66989936325279
| 26>   Cu  -4.35099658090380     -0.87053100492038     -1.51419379523374
| 27> **                         ****END OF INPUT****
================================================================================

                       *****************************
                       * Geometry Optimization Run *
                       *****************************

Geometry optimization settings:
Update method            Update   .... BFGS
Choice of coordinates    CoordSys .... Z-matrix Internals
Initial Hessian          InHess   .... Almoef's Model

Convergence Tolerances:
Energy Change            TolE     ....  5.0000e-06 Eh
Max. Gradient            TolMAXG  ....  3.0000e-04 Eh/bohr
RMS Gradient             TolRMSG  ....  1.0000e-04 Eh/bohr
Max. Displacement        TolMAXD  ....  4.0000e-03 bohr
RMS Displacement         TolRMSD  ....  2.0000e-03 bohr
Strict Convergence                ....  False
------------------------------------------------------------------------------
                        ORCA OPTIMIZATION COORDINATE SETUP
------------------------------------------------------------------------------

The optimization will be done in new redundant internal coordinates
Making redundant internal coordinates   ...  (new redundants) done
Evaluating the initial hessian          ...  (Almloef) done
Evaluating the coordinates              ...  done
Calculating the B-matrix                .... done
Calculating the G-matrix                .... done
Diagonalizing the G-matrix              .... done
Small eigenvalue found = 1.551e-02
The first mode is                       ....   45
The number of degrees of freedom        ....   57

    -----------------------------------------------------------------
                    Redundant Internal Coordinates


    -----------------------------------------------------------------
         Definition                    Initial Value    Approx d2E/dq
    -----------------------------------------------------------------
      1. B(C   4,C   3)                  1.5045         0.410306   
      2. B(C   5,N   2)                  1.4789         0.403696   
      3. B(C   5,C   3)                  1.5476         0.350168   
      4. B(C   6,C   4)                  1.4165         0.566798   
      5. B(C   7,C   4)                  1.4001         0.602143   
      6. B(C   8,C   6)                  1.4368         0.526135   
      7. B(C   8,O   0)                  1.2782         0.843711   
      8. B(C   9,C   7)                  1.4131         0.573861   
      9. B(C  10,C   9)                  1.4098         0.580993   
     10. B(C  10,C   8)                  1.4889         0.434475   
     11. B(C  10,O   1)                  1.3230         0.715705   
     12. B(H  11,C   3)                  1.1098         0.334883   
     13. B(H  12,C   3)                  1.1104         0.334120   
     14. B(H  13,C   5)                  1.1102         0.334351   
     15. B(H  14,C   5)                  1.1032         0.343003   
     16. B(H  15,C   6)                  1.0995         0.347737   
     17. B(H  16,C   7)                  1.0985         0.349076   
     18. B(H  17,C   9)                  1.0982         0.349446   
     19. B(H  18,N   2)                  1.0348         0.394966   
     20. B(H  19,N   2)                  1.0275         0.405820   
     21. B(Cu 20,O   1)                  1.9195         0.809520   
     22. A(C  10,O   1,Cu 20)          122.9966         0.520179   
     23. A(H  18,N   2,H  19)          102.6902         0.295851   
     24. A(C   5,N   2,H  19)          107.3113         0.330184   
     25. A(C   5,N   2,H  18)          103.7031         0.328709   
     26. A(C   4,C   3,H  11)          110.3703         0.325450   
     27. A(C   5,C   3,H  11)          106.7910         0.317118   
     28. A(H  11,C   3,H  12)          106.8039         0.284213   
     29. A(C   5,C   3,H  12)          108.1519         0.317000   
     30. A(C   4,C   3,C   5)          113.6576         0.365163   
     31. A(C   4,C   3,H  12)          110.7589         0.325328   
     32. A(C   3,C   4,C   6)          121.7302         0.396967   
     33. A(C   6,C   4,C   7)          118.0561         0.424901   
     34. A(C   3,C   4,C   7)          120.0886         0.401213   
     35. A(C   3,C   5,H  14)          108.5043         0.318358   
     36. A(H  13,C   5,H  14)          107.8860         0.285305   
     37. A(N   2,C   5,H  14)          106.4337         0.323914   
     38. A(C   3,C   5,H  13)          109.6508         0.317036   
     39. A(N   2,C   5,H  13)          108.4469         0.322560   
     40. A(N   2,C   5,C   3)          115.6315         0.361886   
     41. A(C   8,C   6,H  15)          114.9767         0.341280   
     42. A(C   4,C   6,H  15)          119.8138         0.345567   
     43. A(C   4,C   6,C   8)          125.0236         0.414797   
     44. A(C   9,C   7,H  16)          120.6715         0.346511   
     45. A(C   4,C   7,H  16)          119.7018         0.349331   
     46. A(C   4,C   7,C   9)          119.6069         0.425843   
     47. A(O   0,C   8,C   6)          122.4759         0.442559   
     48. A(C   6,C   8,C  10)          115.3797         0.395770   
     49. A(O   0,C   8,C  10)          122.1281         0.427568   
     50. A(C  10,C   9,H  17)          115.7015         0.347294   
     51. A(C   7,C   9,H  17)          120.2508         0.346573   
     52. A(C   7,C   9,C  10)          124.0082         0.423128   
     53. A(C   8,C  10,C   9)          117.8858         0.402734   
     54. A(O   1,C  10,C   9)          119.9000         0.437367   
     55. A(O   1,C  10,C   8)          122.0796         0.415191   
     56. D(C   7,C   4,C   3,C   5)    -87.4762         0.012468   
     57. D(C   6,C   4,C   3,C   5)     88.3796         0.012468   
     58. D(C   7,C   4,C   3,H  11)     32.4636         0.012468   
     59. D(C   7,C   4,C   3,H  12)    150.5325         0.012468   
     60. D(C   6,C   4,C   3,H  12)    -33.6116         0.012468   
     61. D(C   6,C   4,C   3,H  11)   -151.6806         0.012468   
     62. D(N   2,C   5,C   3,H  11)   -177.0857         0.009878   
     63. D(H  14,C   5,N   2,H  19)   -179.9365         0.013909   
     64. D(H  14,C   5,C   3,H  12)   -172.2760         0.009878   
     65. D(H  13,C   5,N   2,H  19)     64.2187         0.013909   
     66. D(H  14,C   5,C   3,H  11)    -57.6486         0.009878   
     67. D(C   3,C   5,N   2,H  18)     48.8599         0.013909   
     68. D(N   2,C   5,C   3,C   4)    -55.1385         0.009878   
     69. D(N   2,C   5,C   3,H  12)     68.2870         0.009878   
     70. D(H  13,C   5,C   3,H  12)    -54.6689         0.009878   
     71. D(H  13,C   5,C   3,H  11)     59.9584         0.009878   
     72. D(H  13,C   5,N   2,H  18)    172.4493         0.013909   
     73. D(H  14,C   5,C   3,C   4)     64.2986         0.009878   
     74. D(H  13,C   5,C   3,C   4)   -178.0943         0.009878   
     75. D(C   3,C   5,N   2,H  19)    -59.3707         0.013909   
     76. D(H  14,C   5,N   2,H  18)    -71.7059         0.013909   
     77. D(H  15,C   6,C   4,C   7)   -175.7942         0.022027   
     78. D(H  15,C   6,C   4,C   3)      8.2689         0.022027   
     79. D(C   8,C   6,C   4,C   7)     -1.0068         0.022027   
     80. D(C   8,C   6,C   4,C   3)   -176.9437         0.022027   
     81. D(H  16,C   7,C   4,C   6)   -179.2886         0.025005   
     82. D(H  16,C   7,C   4,C   3)     -3.2825         0.025005   
     83. D(C   9,C   7,C   4,C   6)     -0.8936         0.025005   
     84. D(C   9,C   7,C   4,C   3)    175.1125         0.025005   
     85. D(O   0,C   8,C   6,H  15)     -1.8351         0.018888   
     86. D(O   0,C   8,C   6,C   4)   -176.8463         0.018888   
     87. D(C  10,C   8,C   6,H  15)    176.7224         0.018888   
     88. D(C  10,C   8,C   6,C   4)      1.7112         0.018888   
     89. D(H  17,C   9,C   7,H  16)     -1.9452         0.022603   
     90. D(H  17,C   9,C   7,C   4)    179.6757         0.022603   
     91. D(C  10,C   9,C   7,H  16)   -179.5558         0.022603   
     92. D(C  10,C   9,C   7,C   4)      2.0650         0.022603   
     93. D(C   8,C  10,C   9,C   7)     -1.2758         0.023195   
     94. D(O   1,C  10,C   9,H  17)     -3.1157         0.023195   
     95. D(O   1,C  10,C   9,C   7)    174.5937         0.023195   
     96. D(C   9,C  10,C   8,C   6)     -0.5547         0.012889   
     97. D(C   9,C  10,C   8,O   0)    178.0083         0.012889   
     98. D(O   1,C  10,C   8,C   6)   -176.3286         0.012889   
     99. D(O   1,C  10,C   8,O   0)      2.2344         0.012889   
    100. D(C   9,C  10,O   1,Cu 20)    139.9437         0.038526   
    101. D(C   8,C  10,C   9,H  17)   -178.9853         0.023195   
    102. D(C   8,C  10,O   1,Cu 20)    -44.3653         0.038526   
    -----------------------------------------------------------------

Number of atoms                         .... 21
Number of degrees of freedom            .... 102

         *************************************************************
         *                GEOMETRY OPTIMIZATION CYCLE   1            *
         *************************************************************
---------------------------------
CARTESIAN COORDINATES (ANGSTROEM)
---------------------------------
  O     -2.097882   -2.098910    0.205618
  O     -3.436903    0.374582   -0.374641
  N      2.747149   -0.957384   -1.241220
  C      2.139109    0.332440    0.886928
  C      0.662429    0.320320    0.599354
  C      3.019563    0.213814   -0.380287
  C     -0.072867   -0.888341    0.528592
  C     -0.005670    1.515584    0.307575
  C     -1.467668   -0.986861    0.198178
  C     -1.369093    1.480962   -0.062383
  C     -2.140213    0.302276   -0.122143
  H      2.426961    1.278897    1.389854
  H      2.412528   -0.493641    1.576698
  H      4.090981    0.194843   -0.090050
  H      2.853937    1.106826   -1.006578
  H      0.403574   -1.835840    0.818713
  H      0.541403    2.467476    0.342710
  H     -1.904863    2.412567   -0.288327
  H      1.719055   -0.941823   -1.358187
  H      2.896617   -1.798177   -0.669899
  Cu    -4.350997   -0.870531   -1.514194

----------------------------
CARTESIAN COORDINATES (A.U.)
----------------------------
  NO LB      ZA    FRAG     MASS         X           Y           Z
   0 O     8.0000    0    15.999   -3.964422   -3.966365    0.388561
   1 O     8.0000    0    15.999   -6.494805    0.707857   -0.707968
   2 N     7.0000    0    14.007    5.191358   -1.809194   -2.345566
   3 C     6.0000    0    12.011    4.042330    0.628221    1.676051
   4 C     6.0000    0    12.011    1.251808    0.605317    1.132615
   5 C     6.0000    0    12.011    5.706148    0.404050   -0.718639
   6 C     6.0000    0    12.011   -0.137699   -1.678720    0.998893
   7 C     6.0000    0    12.011   -0.010715    2.864040    0.581233
   8 C     6.0000    0    12.011   -2.773492   -1.864896    0.374503
   9 C     6.0000    0    12.011   -2.587211    2.798613   -0.117886
  10 C     6.0000    0    12.011   -4.044416    0.571219   -0.230817
  11 H     1.0000    0     1.008    4.586292    2.416765    2.626443
  12 H     1.0000    0     1.008    4.559018   -0.932847    2.979528
  13 H     1.0000    0     1.008    7.730834    0.368200   -0.170171
  14 H     1.0000    0     1.008    5.393159    2.091597   -1.902157
  15 H     1.0000    0     1.008    0.762644   -3.469234    1.547144
  16 H     1.0000    0     1.008    1.023104    4.662854    0.647628
  17 H     1.0000    0     1.008   -3.599670    4.559091   -0.544859
  18 H     1.0000    0     1.008    3.248544   -1.779787   -2.566601
  19 H     1.0000    0     1.008    5.473812   -3.398062   -1.265926
  20 Cu   29.0000    0    63.550   -8.222192   -1.645065   -2.861412

--------------------------------
INTERNAL COORDINATES (ANGSTROEM)
--------------------------------
 O      0   0   0     0.000000000000     0.00000000     0.00000000
 O      1   0   0     2.871904942108     0.00000000     0.00000000
 N      1   2   0     5.183699145374   100.93693921     0.00000000
 C      3   1   2     2.561713123996    69.94971347    70.26650633
 C      4   3   1     1.504470396483    94.02091480   333.93622369
 C      3   1   2     1.478891843176   100.60750376    57.85311889
 C      5   4   3     1.416519470148   121.73024728    63.03005662
 C      5   4   3     1.400052949551   120.08862890   247.17422468
 C      1   2   3     1.278232232297    58.62767596    26.10113578
 C      8   5   4     1.413148387900   119.60694057   175.11254221
 C      2   1   3     1.323022245717    57.13925447   335.05763414
 H      4   3   1     1.109762686814   138.10118661   207.00456221
 H      4   3   1     1.110383760251    94.76285708    85.18384493
 H      6   3   1     1.110195084067   108.44686927   145.35059742
 H      6   3   1     1.103241400992   106.43365786   261.19544097
 H      7   5   4     1.099509467349   119.81376522     8.26891536
 H      8   5   4     1.098463435012   119.70180239   356.71749801
 H     10   8   5     1.098175124480   120.25075512   179.67566126
 H      3   1   2     1.034842569770    26.65660685   318.40652984
 H      3   1   2     1.027462911810    78.49592923   163.56657349
 Cu     2   1   3     1.919493300664    77.48505065   118.90889926

---------------------------
INTERNAL COORDINATES (A.U.)
---------------------------
 O      0   0   0     0.000000000000     0.00000000     0.00000000
 O      1   0   0     5.427113823240     0.00000000     0.00000000
 N      1   2   0     9.795771745399   100.93693921     0.00000000
 C      3   1   2     4.840936238025    69.94971347    70.26650633
 C      4   3   1     2.843037025944    94.02091480   333.93622369
 C      3   1   2     2.794700565292   100.60750376    57.85311889
 C      5   4   3     2.676833861946   121.73024728    63.03005662
 C      5   4   3     2.645716647640   120.08862890   247.17422468
 C      1   2   3     2.415508854593    58.62767596    26.10113578
 C      8   5   4     2.670463439724   119.60694057   175.11254221
 C      2   1   3     2.500149713491    57.13925447   335.05763414
 H      4   3   1     2.097147551723   138.10118661   207.00456221
 H      4   3   1     2.098321210428    94.76285708    85.18384493
 H      6   3   1     2.097964664113   108.44686927   145.35059742
 H      6   3   1     2.084824107478   106.43365786   261.19544097
 H      7   5   4     2.077771774943   119.81376522     8.26891536
 H      8   5   4     2.075795060298   119.70180239   356.71749801
 H     10   8   5     2.075250232353   120.25075512   179.67566126
 H      3   1   2     1.955569048588    26.65660685   318.40652984
 H      3   1   2     1.941623516083    78.49592923   163.56657349
 Cu     2   1   3     3.627316654152    77.48505065   118.90889926

---------------------
BASIS SET INFORMATION
---------------------
There are 5 groups of distinct atoms

 Group   1 Type O   : 11s6p2d1f contracted to 5s3p2d1f pattern {62111/411/11/1}
 Group   2 Type N   : 11s6p2d1f contracted to 5s3p2d1f pattern {62111/411/11/1}
 Group   3 Type C   : 11s6p2d1f contracted to 5s3p2d1f pattern {62111/411/11/1}
 Group   4 Type H   : 5s1p contracted to 3s1p pattern {311/1}
 Group   5 Type Cu  : 17s11p7d1f contracted to 6s4p4d1f pattern {842111/6311/4111/1}

Atom   0O    basis set group =>   1
Atom   1O    basis set group =>   1
Atom   2N    basis set group =>   2
Atom   3C    basis set group =>   3
Atom   4C    basis set group =>   3
Atom   5C    basis set group =>   3
Atom   6C    basis set group =>   3
Atom   7C    basis set group =>   3
Atom   8C    basis set group =>   3
Atom   9C    basis set group =>   3
Atom  10C    basis set group =>   3
Atom  11H    basis set group =>   4
Atom  12H    basis set group =>   4
Atom  13H    basis set group =>   4
Atom  14H    basis set group =>   4
Atom  15H    basis set group =>   4
Atom  16H    basis set group =>   4
Atom  17H    basis set group =>   4
Atom  18H    basis set group =>   4
Atom  19H    basis set group =>   4
Atom  20Cu   basis set group =>   5
---------------------------------
AUXILIARY/J BASIS SET INFORMATION
---------------------------------
There are 5 groups of distinct atoms

 Group   1 Type O   : 12s5p4d2f1g contracted to 6s4p3d1f1g pattern {711111/2111/211/2/1}
 Group   2 Type N   : 12s5p4d2f1g contracted to 6s4p3d1f1g pattern {711111/2111/211/2/1}
 Group   3 Type C   : 12s5p4d2f1g contracted to 6s4p3d1f1g pattern {711111/2111/211/2/1}
 Group   4 Type H   : 5s2p1d contracted to 3s1p1d pattern {311/2/1}
 Group   5 Type Cu  : 19s5p5d3f3g contracted to 8s5p4d3f3g pattern {121111111/11111/2111/111/111}

Atom   0O    basis set group =>   1
Atom   1O    basis set group =>   1
Atom   2N    basis set group =>   2
Atom   3C    basis set group =>   3
Atom   4C    basis set group =>   3
Atom   5C    basis set group =>   3
Atom   6C    basis set group =>   3
Atom   7C    basis set group =>   3
Atom   8C    basis set group =>   3
Atom   9C    basis set group =>   3
Atom  10C    basis set group =>   3
Atom  11H    basis set group =>   4
Atom  12H    basis set group =>   4
Atom  13H    basis set group =>   4
Atom  14H    basis set group =>   4
Atom  15H    basis set group =>   4
Atom  16H    basis set group =>   4
Atom  17H    basis set group =>   4
Atom  18H    basis set group =>   4
Atom  19H    basis set group =>   4
Atom  20Cu   basis set group =>   5


           ************************************************************
           *        Program running with 3 parallel MPI-processes     *
           *              working on a common directory               *
           ************************************************************
------------------------------------------------------------------------------
                           ORCA GTO INTEGRAL CALCULATION
                           -- RI-GTO INTEGRALS CHOSEN --
------------------------------------------------------------------------------
------------------------------------------------------------------------------
                   ___                                                        
                  /   \      - P O W E R E D   B Y -                         
                 /     \                                                     
                 |  |  |   _    _      __       _____    __    __             
                 |  |  |  | |  | |    /  \     |  _  \  |  |  /  |          
                  \  \/   | |  | |   /    \    | | | |  |  | /  /          
                 / \  \   | |__| |  /  /\  \   | |_| |  |  |/  /          
                |  |  |   |  __  | /  /__\  \  |    /   |      \           
                |  |  |   | |  | | |   __   |  |    \   |  |\   \          
                \     /   | |  | | |  |  |  |  | |\  \  |  | \   \       
                 \___/    |_|  |_| |__|  |__|  |_| \__\ |__|  \__/        
                                                                              
                      - O R C A' S   B I G   F R I E N D -                    
                                      &                                       
                       - I N T E G R A L  F E E D E R -                       
                                                                              
 v1 FN, 2020, v2 2021                                                         
------------------------------------------------------------------------------


Reading SHARK input file 4_2x_deprotonated.SHARKINP.tmp ... ok
----------------------
SHARK INTEGRAL PACKAGE
----------------------

Number of atoms                             ...     21
Number of basis functions                   ...    440
Number of shells                            ...    172
Maximum angular momentum                    ...      3
Integral batch strategy                     ... SHARK/LIBINT Hybrid
RI-J (if used) integral strategy            ... SPLIT-RIJ (Revised 2003 algorithm where possible)
Printlevel                                  ...      1
Contraction scheme used                     ... SEGMENTED contraction
Coulomb Range Separation                    ... NOT USED
Exchange Range Separation                   ... NOT USED
Finite Nucleus Model                        ... NOT USED
Auxiliary Coulomb fitting basis             ... AVAILABLE
   # of basis functions in Aux-J            ...    729
   # of shells in Aux-J                     ...    233
   Maximum angular momentum in Aux-J        ...      4
Auxiliary J/K fitting basis                 ... NOT available
Auxiliary Correlation fitting basis         ... NOT available
Auxiliary 'external' fitting basis          ... NOT available
Integral threshold                          ...     2.500000e-11
Primitive cut-off                           ...     2.500000e-12
Primitive pair pre-selection threshold      ...     2.500000e-12

Calculating pre-screening integrals         ... done (  0.5 sec) Dimension = 172
Organizing shell pair data                  ... done (  0.3 sec)
Shell pair information
Total number of shell pairs                 ...     14878
Shell pairs after pre-screening             ...     12245
Total number of primitive shell pairs       ...     48533
Primitive shell pairs kept                  ...     27583
          la=0 lb=0:   3128 shell pairs
          la=1 lb=0:   3408 shell pairs
          la=1 lb=1:    948 shell pairs
          la=2 lb=0:   1850 shell pairs
          la=2 lb=1:   1022 shell pairs
          la=2 lb=2:    294 shell pairs
          la=3 lb=0:    820 shell pairs
          la=3 lb=1:    460 shell pairs
          la=3 lb=2:    252 shell pairs
          la=3 lb=3:     63 shell pairs

Calculating one electron integrals          ... done (  0.0 sec)
Calculating RI/J V-Matrix + Cholesky decomp.... done (  0.0 sec)
Calculating Nuclear repulsion               ... done (  0.0 sec) ENN=    872.266360370524 Eh

SHARK setup successfully completed in   1.0 seconds

Maximum memory used throughout the entire GTOINT-calculation: 22.1 MB


           ************************************************************
           *        Program running with 3 parallel MPI-processes     *
           *              working on a common directory               *
           ************************************************************
-------------------------------------------------------------------------------
                                 ORCA SCF
-------------------------------------------------------------------------------

------------
SCF SETTINGS
------------
Hamiltonian:
 Density Functional     Method          .... DFT(GTOs)
 Exchange Functional    Exchange        .... PBE
   PBE kappa parameter   XKappa         ....  0.804000
   PBE mue parameter    XMuePBE         ....  0.219520
 Correlation Functional Correlation     .... PBE
   PBE beta parameter  CBetaPBE         ....  0.066725
 LDA part of GGA corr.  LDAOpt          .... PW91-LDA
 Gradients option       PostSCFGGA      .... off
   Density functional embedding theory  .... OFF
   NL short-range parameter             ....  6.400000
 RI-approximation to the Coulomb term is turned on
   Number of AuxJ basis functions       .... 729


General Settings:
 Integral files         IntName         .... 4_2x_deprotonated
 Hartree-Fock type      HFTyp           .... UHF
 Total Charge           Charge          ....   -2
 Multiplicity           Mult            ....    2
 Number of Electrons    NEL             ....  111
 Basis Dimension        Dim             ....  440
 Nuclear Repulsion      ENuc            ....    872.2663603705 Eh

Convergence Acceleration:
 DIIS                   CNVDIIS         .... on
   Start iteration      DIISMaxIt       ....    12
   Startup error        DIISStart       ....  0.200000
   # of expansion vecs  DIISMaxEq       ....     5
   Bias factor          DIISBfac        ....   1.050
   Max. coefficient     DIISMaxC        ....  10.000
 Trust-Rad. Augm. Hess. CNVTRAH         .... auto
   Auto Start mean grad. ratio tolernc. ....  1.125000
   Auto Start start iteration           ....    20
   Auto Start num. interpolation iter.  ....    10
   Max. Number of Micro iterations      ....    16
   Max. Number of Macro iterations      .... Maxiter - #DIIS iter
   Number of Davidson start vectors     ....     2
   Converg. threshold I  (grad. norm)   ....   1.000e-05
   Converg. threshold II (energy diff.) ....   1.000e-08
   Grad. Scal. Fac. for Micro threshold ....   0.100
   Minimum threshold for Micro iter.    ....   0.010
   NR start threshold (gradient norm)   ....   0.001
   Initial trust radius                 ....   0.400
   Minimum AH scaling param. (alpha)    ....   1.000
   Maximum AH scaling param. (alpha)    .... 1000.000
   Orbital update algorithm             .... Taylor
   White noise on init. David. guess    .... on
   Maximum white noise                  ....   0.010
   Quad. conv. algorithm                .... NR
 SOSCF                  CNVSOSCF        .... off
 Level Shifting         CNVShift        .... on
   Level shift para.    LevelShift      ....    0.2500
   Turn off err/grad.   ShiftErr        ....    0.0010
 Zerner damping         CNVZerner       .... off
 Static damping         CNVDamp         .... on
   Fraction old density DampFac         ....    0.7000
   Max. Damping (<1)    DampMax         ....    0.9800
   Min. Damping (>=0)   DampMin         ....    0.0000
   Turn off err/grad.   DampErr         ....    0.1000
 Fernandez-Rico         CNVRico         .... off

SCF Procedure:
 Maximum # iterations   MaxIter         ....   125
 SCF integral mode      SCFMode         .... Direct
   Integral package                     .... SHARK and LIBINT hybrid scheme
 Reset frequency        DirectResetFreq ....    20
 Integral Threshold     Thresh          ....  2.500e-11 Eh
 Primitive CutOff       TCut            ....  2.500e-12 Eh

Convergence Tolerance:
 Convergence Check Mode ConvCheckMode   .... Total+1el-Energy
 Convergence forced     ConvForced      .... 0
 Energy Change          TolE            ....  1.000e-08 Eh
 1-El. energy change                    ....  1.000e-05 Eh
 DIIS Error             TolErr          ....  5.000e-07


Diagonalization of the overlap matrix:
Smallest eigenvalue                        ... 1.217e-05
Time for diagonalization                   ...    0.028 sec
Threshold for overlap eigenvalues          ... 1.000e-08
Number of eigenvalues below threshold      ... 0
Time for construction of square roots      ...    0.020 sec
Total time needed                          ...    0.050 sec

Time for model grid setup =    0.200 sec

------------------------------
INITIAL GUESS: MODEL POTENTIAL
------------------------------
Loading Hartree-Fock densities                     ... done
Calculating cut-offs                               ... done
Initializing the effective Hamiltonian             ... done
Setting up the integral package (SHARK)            ... done
Starting the Coulomb interaction                   ... done (   0.7 sec)
Reading the grid                                   ... done
Mapping shells                                     ... done
Starting the XC term evaluation                    ... done (   0.7 sec)
  promolecular density results
     # of electrons  =    109.000056060
     EX              =   -131.787663730
     EC              =     -4.014066720
     EX+EC           =   -135.801730450
Transforming the Hamiltonian                       ... done (   0.0 sec)
Diagonalizing the Hamiltonian                      ... done (   0.0 sec)
Back transforming the eigenvectors                 ... done (   0.0 sec)
Now organizing SCF variables                       ... done
                      ------------------
                      INITIAL GUESS DONE (   1.6 sec)
                      ------------------
-------------------
DFT GRID GENERATION
-------------------

General Integration Accuracy     IntAcc      ... 4.388
Radial Grid Type                 RadialGrid  ... OptM3 with GC (2021)
Angular Grid (max. ang.)         AngularGrid ... 4 (Lebedev-302)
Angular grid pruning method      GridPruning ... 4 (adaptive)
Weight generation scheme         WeightScheme... Becke
Basis function cutoff            BFCut       ... 1.0000e-11
Integration weight cutoff        WCut        ... 1.0000e-14
Angular grids for H and He will be reduced by one unit
Partially contracted basis set               ... off
Rotationally invariant grid construction     ... off

Total number of grid points                  ...   106110
Total number of batches                      ...     1669
Average number of points per batch           ...       63
Average number of grid points per atom       ...     5053
Time for grid setup =    1.205 sec

--------------
SCF ITERATIONS
--------------
ITER       Energy         Delta-E        Max-DP      RMS-DP      [F,P]     Damp
               ***  Starting incremental Fock matrix formation  ***
  0  -2154.6665476423   0.000000000000 2.10480454  0.01537874  0.3313910 0.7000
  1  -2154.9505488968  -0.284001254479 0.63119111  0.00631150  0.1517314 0.7000
                               ***Turning on DIIS***
  2  -2155.0491281455  -0.098579248760 0.62672784  0.00468638  0.0567860 0.0000
  3  -2155.1997873993  -0.150659253798 0.25857699  0.00220527  0.2008640 0.7000
  4  -2155.2299239816  -0.030136582260 0.30875649  0.00242045  0.1493338 0.7000
  5  -2155.2518983128  -0.021974331254 0.27850630  0.00202649  0.1076364 0.7000
  6  -2155.2655838510  -0.013685538186 0.75591075  0.00522236  0.0773980 0.0000
  7  -2155.2868574510  -0.021273599947 0.05615610  0.00042433  0.0034331 0.0000
  8  -2155.2871808207  -0.000323369730 0.04050235  0.00029308  0.0103117 0.0000
  9  -2155.2873764979  -0.000195677167 0.02792481  0.00020804  0.0047101 0.0000
 10  -2155.2874814180  -0.000104920162 0.08942785  0.00068355  0.0008688 0.0000
 11  -2155.2875866912  -0.000105273140 0.00168212  0.00001591  0.0011405 0.0000
 12  -2155.2875931020  -0.000006410784 0.00679364  0.00004402  0.0004674 0.0000
 13  -2155.2875931091  -0.000000007179 0.00263793  0.00002362  0.0009016 0.0000
 14  -2155.2875951323  -0.000002023149 0.00083293  0.00000792  0.0006120 0.0000
 15  -2155.2875956196  -0.000000487326 0.00040172  0.00000433  0.0002085 0.0000
 16  -2155.2875956945  -0.000000074851 0.00033474  0.00000327  0.0000295 0.0000
 17  -2155.2875957063  -0.000000011853 0.00008668  0.00000089  0.0000840 0.0000
 18  -2155.2875957097  -0.000000003398 0.00017344  0.00000145  0.0000163 0.0000
 19  -2155.2875957103  -0.000000000576 0.00027793  0.00000307  0.0000175 0.0000
               *** Restarting incremental Fock matrix formation ***
                                   *** Resetting DIIS ***
 20  -2155.2875957365  -0.000000026174 0.00095680  0.00001074  0.0000043 0.0000
 21  -2155.2875957264   0.000000010090 0.00005248  0.00000042  0.0000158 0.0000
 22  -2155.2875957427  -0.000000016326 0.00013295  0.00000130  0.0000077 0.0000
 23  -2155.2875957327   0.000000009977 0.00019173  0.00000169  0.0000049 0.0000
 24  -2155.2875957250   0.000000007702 0.00012191  0.00000126  0.0000024 0.0000
                 **** Energy Check signals convergence ****

               *****************************************************
               *                     SUCCESS                       *
               *           SCF CONVERGED AFTER  25 CYCLES          *
               *****************************************************


----------------
TOTAL SCF ENERGY
----------------

Total Energy       :        -2155.28759572 Eh          -58648.35710 eV

Components:
Nuclear Repulsion  :          872.26636037 Eh           23735.57436 eV
Electronic Energy  :        -3027.55395609 Eh          -82383.93146 eV
One Electron Energy:        -4754.71864607 Eh         -129382.47204 eV
Two Electron Energy:         1727.16468998 Eh           46998.54057 eV

Virial components:
Potential Energy   :        -4305.97209218 Eh         -117171.45751 eV
Kinetic Energy     :         2150.68449646 Eh           58523.10041 eV
Virial Ratio       :            2.00214029


DFT components:
N(Alpha)           :       55.998955824988 electrons
N(Beta)            :       54.999845488052 electrons
N(Total)           :      110.998801313040 electrons
E(X)               :     -133.476757649108 Eh       
E(C)               :       -4.082726790375 Eh       
E(XC)              :     -137.559484439483 Eh       
DFET-embed. en.    :        0.000000000000 Eh       

---------------
SCF CONVERGENCE
---------------

  Last Energy change         ...    9.0640e-09  Tolerance :   1.0000e-08
  Last MAX-Density change    ...    1.4328e-04  Tolerance :   1.0000e-07
  Last RMS-Density change    ...    1.1489e-06  Tolerance :   5.0000e-09
  Last DIIS Error            ...    5.1174e-07  Tolerance :   5.0000e-07

             **** THE GBW FILE WAS UPDATED (4_2x_deprotonated.gbw) ****
             **** DENSITY 4_2x_deprotonated.scfp WAS UPDATED ****
             **** ENERGY FILE WAS UPDATED (4_2x_deprotonated.en.tmp) ****
----------------------
UHF SPIN CONTAMINATION
----------------------

Warning: in a DFT calculation there is little theoretical justification to 
         calculate <S**2> as in Hartree-Fock theory. We will do it anyways
         but you should keep in mind that the values have only limited relevance

Expectation value of <S**2>     :     0.753046
Ideal value S*(S+1) for S=0.5   :     0.750000
Deviation                       :     0.003046

             **** THE GBW FILE WAS UPDATED (4_2x_deprotonated.gbw) ****
             **** DENSITY 4_2x_deprotonated.scfp WAS UPDATED ****
----------------
ORBITAL ENERGIES
----------------
                 SPIN UP ORBITALS
  NO   OCC          E(Eh)            E(eV) 
   0   1.0000    -321.180044     -8739.7533 
   1   1.0000     -37.950205     -1032.6776 
   2   1.0000     -33.241904      -904.5582 
   3   1.0000     -33.240671      -904.5247 
   4   1.0000     -33.239904      -904.5038 
   5   1.0000     -18.424283      -501.3502 
   6   1.0000     -18.384246      -500.2608 
   7   1.0000     -13.750036      -374.1575 
   8   1.0000      -9.691644      -263.7230 
   9   1.0000      -9.655603      -262.7423 
  10   1.0000      -9.625981      -261.9363 
  11   1.0000      -9.622961      -261.8541 
  12   1.0000      -9.609177      -261.4790 
  13   1.0000      -9.596600      -261.1368 
  14   1.0000      -9.586006      -260.8485 
  15   1.0000      -9.582265      -260.7467 
  16   1.0000      -3.781860      -102.9096 
  17   1.0000      -2.320904       -63.1550 
  18   1.0000      -2.316438       -63.0335 
  19   1.0000      -2.312952       -62.9386 
  20   1.0000      -0.606501       -16.5037 
  21   1.0000      -0.587575       -15.9887 
  22   1.0000      -0.575025       -15.6472 
  23   1.0000      -0.479863       -13.0577 
  24   1.0000      -0.429282       -11.6813 
  25   1.0000      -0.368127       -10.0172 
  26   1.0000      -0.344441        -9.3727 
  27   1.0000      -0.307719        -8.3735 
  28   1.0000      -0.241255        -6.5649 
  29   1.0000      -0.231541        -6.3005 
  30   1.0000      -0.211725        -5.7613 
  31   1.0000      -0.169133        -4.6023 
  32   1.0000      -0.157538        -4.2868 
  33   1.0000      -0.147153        -4.0042 
  34   1.0000      -0.131231        -3.5710 
  35   1.0000      -0.119277        -3.2457 
  36   1.0000      -0.096853        -2.6355 
  37   1.0000      -0.082460        -2.2438 
  38   1.0000      -0.075365        -2.0508 
  39   1.0000      -0.062114        -1.6902 
  40   1.0000      -0.057352        -1.5606 
  41   1.0000      -0.032699        -0.8898 
  42   1.0000      -0.020967        -0.5705 
  43   1.0000       0.000697         0.0190 
  44   1.0000       0.004600         0.1252 
  45   1.0000       0.018348         0.4993 
  46   1.0000       0.058285         1.5860 
  47   1.0000       0.086388         2.3507 
  48   1.0000       0.108468         2.9516 
  49   1.0000       0.111119         3.0237 
  50   1.0000       0.112866         3.0712 
  51   1.0000       0.114579         3.1178 
  52   1.0000       0.123492         3.3604 
  53   1.0000       0.124885         3.3983 
  54   1.0000       0.145741         3.9658 
  55   1.0000       0.158309         4.3078 
  56   0.0000       0.209734         5.7072 
  57   0.0000       0.237554         6.4642 
  58   0.0000       0.254374         6.9219 
  59   0.0000       0.263647         7.1742 
  60   0.0000       0.267906         7.2901 
  61   0.0000       0.275025         7.4838 
  62   0.0000       0.293693         7.9918 
  63   0.0000       0.302687         8.2365 
  64   0.0000       0.304505         8.2860 
  65   0.0000       0.311560         8.4780 
  66   0.0000       0.327801         8.9199 
  67   0.0000       0.331673         9.0253 
  68   0.0000       0.334421         9.1001 
  69   0.0000       0.344345         9.3701 
  70   0.0000       0.351588         9.5672 
  71   0.0000       0.361170         9.8279 
  72   0.0000       0.364965         9.9312 
  73   0.0000       0.390262        10.6196 
  74   0.0000       0.402799        10.9607 
  75   0.0000       0.404565        11.0088 
  76   0.0000       0.421865        11.4795 
  77   0.0000       0.428287        11.6543 
  78   0.0000       0.434716        11.8292 
  79   0.0000       0.437763        11.9121 
  80   0.0000       0.443210        12.0603 
  81   0.0000       0.450837        12.2679 
  82   0.0000       0.459418        12.5014 
  83   0.0000       0.469815        12.7843 
  84   0.0000       0.474421        12.9096 
  85   0.0000       0.478608        13.0236 
  86   0.0000       0.488709        13.2984 
  87   0.0000       0.497230        13.5303 
  88   0.0000       0.502307        13.6685 
  89   0.0000       0.513322        13.9682 
  90   0.0000       0.520140        14.1537 
  91   0.0000       0.526946        14.3389 
  92   0.0000       0.527796        14.3621 
  93   0.0000       0.541424        14.7329 
  94   0.0000       0.544959        14.8291 
  95   0.0000       0.549713        14.9585 
  96   0.0000       0.571274        15.5452 
  97   0.0000       0.586062        15.9476 
  98   0.0000       0.587220        15.9791 
  99   0.0000       0.592560        16.1244 
 100   0.0000       0.594760        16.1842 
 101   0.0000       0.607924        16.5425 
 102   0.0000       0.612007        16.6536 
 103   0.0000       0.620123        16.8744 
 104   0.0000       0.622040        16.9266 
 105   0.0000       0.634398        17.2629 
 106   0.0000       0.641115        17.4456 
 107   0.0000       0.644933        17.5495 
 108   0.0000       0.649250        17.6670 
 109   0.0000       0.653500        17.7826 
 110   0.0000       0.671648        18.2765 
 111   0.0000       0.684922        18.6377 
 112   0.0000       0.686340        18.6763 
 113   0.0000       0.694736        18.9047 
 114   0.0000       0.704464        19.1694 
 115   0.0000       0.710187        19.3252 
 116   0.0000       0.721508        19.6332 
 117   0.0000       0.733102        19.9487 
 118   0.0000       0.751895        20.4601 
 119   0.0000       0.759900        20.6779 
 120   0.0000       0.772007        21.0074 
 121   0.0000       0.774720        21.0812 
 122   0.0000       0.790531        21.5114 
 123   0.0000       0.801890        21.8205 
 124   0.0000       0.806920        21.9574 
 125   0.0000       0.828783        22.5523 
 126   0.0000       0.846017        23.0213 
 127   0.0000       0.851294        23.1649 
 128   0.0000       0.866652        23.5828 
 129   0.0000       0.874079        23.7849 
 130   0.0000       0.887788        24.1579 
 131   0.0000       0.905198        24.6317 
 132   0.0000       0.908696        24.7269 
 133   0.0000       0.923733        25.1360 
 134   0.0000       0.939304        25.5598 
 135   0.0000       0.951271        25.8854 
 136   0.0000       0.962602        26.1937 
 137   0.0000       0.981716        26.7139 
 138   0.0000       0.994832        27.0708 
 139   0.0000       1.005788        27.3689 
 140   0.0000       1.015235        27.6259 
 141   0.0000       1.022601        27.8264 
 142   0.0000       1.041525        28.3413 
 143   0.0000       1.053226        28.6597 
 144   0.0000       1.061067        28.8731 
 145   0.0000       1.075036        29.2532 
 146   0.0000       1.086111        29.5546 
 147   0.0000       1.094978        29.7959 
 148   0.0000       1.106393        30.1065 
 149   0.0000       1.122812        30.5533 
 150   0.0000       1.138435        30.9784 
 151   0.0000       1.147716        31.2309 
 152   0.0000       1.158325        31.5196 
 153   0.0000       1.173287        31.9267 
 154   0.0000       1.182404        32.1748 
 155   0.0000       1.185627        32.2626 
 156   0.0000       1.201033        32.6818 
 157   0.0000       1.222811        33.2744 
 158   0.0000       1.230918        33.4950 
 159   0.0000       1.257906        34.2294 
 160   0.0000       1.262432        34.3525 
 161   0.0000       1.269207        34.5369 
 162   0.0000       1.284764        34.9602 
 163   0.0000       1.301343        35.4113 
 164   0.0000       1.316531        35.8246 
 165   0.0000       1.332571        36.2611 
 166   0.0000       1.340703        36.4824 
 167   0.0000       1.367446        37.2101 
 168   0.0000       1.375684        37.4343 
 169   0.0000       1.385563        37.7031 
 170   0.0000       1.406059        38.2608 
 171   0.0000       1.432265        38.9739 
 172   0.0000       1.439773        39.1782 
 173   0.0000       1.448997        39.4292 
 174   0.0000       1.465298        39.8728 
 175   0.0000       1.484526        40.3960 
 176   0.0000       1.490783        40.5663 
 177   0.0000       1.508634        41.0520 
 178   0.0000       1.531138        41.6644 
 179   0.0000       1.537853        41.8471 
 180   0.0000       1.551970        42.2313 
 181   0.0000       1.559469        42.4353 
 182   0.0000       1.582892        43.0727 
 183   0.0000       1.587945        43.2102 
 184   0.0000       1.606767        43.7223 
 185   0.0000       1.636444        44.5299 
 186   0.0000       1.647339        44.8264 
 187   0.0000       1.670154        45.4472 
 188   0.0000       1.708847        46.5001 
 189   0.0000       1.717899        46.7464 
 190   0.0000       1.728290        47.0292 
 191   0.0000       1.735026        47.2125 
 192   0.0000       1.737472        47.2790 
 193   0.0000       1.748541        47.5802 
 194   0.0000       1.770813        48.1863 
 195   0.0000       1.776407        48.3385 
 196   0.0000       1.795598        48.8607 
 197   0.0000       1.800844        49.0035 
 198   0.0000       1.819224        49.5036 
 199   0.0000       1.848185        50.2917 
 200   0.0000       1.855867        50.5007 
 201   0.0000       1.881895        51.2090 
 202   0.0000       1.887302        51.3561 
 203   0.0000       1.910380        51.9841 
 204   0.0000       1.927912        52.4612 
 205   0.0000       1.931346        52.5546 
 206   0.0000       1.962293        53.3967 
 207   0.0000       1.967021        53.5254 
 208   0.0000       1.988732        54.1162 
 209   0.0000       2.000921        54.4478 
 210   0.0000       2.017097        54.8880 
 211   0.0000       2.027988        55.1844 
 212   0.0000       2.053783        55.8863 
 213   0.0000       2.062597        56.1261 
 214   0.0000       2.079780        56.5937 
 215   0.0000       2.090474        56.8847 
 216   0.0000       2.098407        57.1006 
 217   0.0000       2.113755        57.5182 
 218   0.0000       2.128219        57.9118 
 219   0.0000       2.147647        58.4404 
 220   0.0000       2.179560        59.3089 
 221   0.0000       2.181086        59.3504 
 222   0.0000       2.197514        59.7974 
 223   0.0000       2.215034        60.2741 
 224   0.0000       2.234632        60.8074 
 225   0.0000       2.238702        60.9182 
 226   0.0000       2.256873        61.4126 
 227   0.0000       2.273863        61.8750 
 228   0.0000       2.281664        62.0872 
 229   0.0000       2.315595        63.0105 
 230   0.0000       2.332667        63.4751 
 231   0.0000       2.344922        63.8086 
 232   0.0000       2.363506        64.3143 
 233   0.0000       2.366244        64.3888 
 234   0.0000       2.383053        64.8462 
 235   0.0000       2.390793        65.0568 
 236   0.0000       2.399877        65.3040 
 237   0.0000       2.411784        65.6280 
 238   0.0000       2.433976        66.2318 
 239   0.0000       2.447745        66.6065 
 240   0.0000       2.462693        67.0133 
 241   0.0000       2.480803        67.5061 
 242   0.0000       2.492054        67.8122 
 243   0.0000       2.526923        68.7611 
 244   0.0000       2.568470        69.8916 
 245   0.0000       2.579392        70.1888 
 246   0.0000       2.586001        70.3687 
 247   0.0000       2.611261        71.0560 
 248   0.0000       2.620417        71.3052 
 249   0.0000       2.643902        71.9442 
 250   0.0000       2.668377        72.6102 
 251   0.0000       2.678120        72.8753 
 252   0.0000       2.695016        73.3351 
 253   0.0000       2.707560        73.6764 
 254   0.0000       2.728073        74.2346 
 255   0.0000       2.743199        74.6462 
 256   0.0000       2.758431        75.0607 
 257   0.0000       2.773710        75.4765 
 258   0.0000       2.784951        75.7824 
 259   0.0000       2.799800        76.1864 
 260   0.0000       2.819542        76.7236 
 261   0.0000       2.834274        77.1245 
 262   0.0000       2.839801        77.2749 
 263   0.0000       2.847120        77.4741 
 264   0.0000       2.857121        77.7462 
 265   0.0000       2.863167        77.9107 
 266   0.0000       2.896484        78.8173 
 267   0.0000       2.912405        79.2506 
 268   0.0000       2.925426        79.6049 
 269   0.0000       2.932848        79.8069 
 270   0.0000       2.954323        80.3912 
 271   0.0000       2.967077        80.7383 
 272   0.0000       2.981689        81.1359 
 273   0.0000       3.002334        81.6977 
 274   0.0000       3.013180        81.9928 
 275   0.0000       3.026427        82.3533 
 276   0.0000       3.048931        82.9656 
 277   0.0000       3.062340        83.3305 
 278   0.0000       3.068306        83.4928 
 279   0.0000       3.073115        83.6237 
 280   0.0000       3.109950        84.6260 
 281   0.0000       3.120160        84.9039 
 282   0.0000       3.122486        84.9672 
 283   0.0000       3.141855        85.4942 
 284   0.0000       3.162836        86.0651 
 285   0.0000       3.166589        86.1673 
 286   0.0000       3.177575        86.4662 
 287   0.0000       3.201656        87.1215 
 288   0.0000       3.218002        87.5663 
 289   0.0000       3.245259        88.3080 
 290   0.0000       3.252683        88.5100 
 291   0.0000       3.271189        89.0136 
 292   0.0000       3.281446        89.2927 
 293   0.0000       3.294520        89.6484 
 294   0.0000       3.323342        90.4327 
 295   0.0000       3.332716        90.6878 
 296   0.0000       3.336621        90.7941 
 297   0.0000       3.344048        90.9962 
 298   0.0000       3.364355        91.5488 
 299   0.0000       3.375525        91.8527 
 300   0.0000       3.385703        92.1297 
 301   0.0000       3.392793        92.3226 
 302   0.0000       3.413032        92.8733 
 303   0.0000       3.425691        93.2178 
 304   0.0000       3.433526        93.4310 
 305   0.0000       3.443210        93.6945 
 306   0.0000       3.460544        94.1662 
 307   0.0000       3.474600        94.5487 
 308   0.0000       3.479662        94.6864 
 309   0.0000       3.496578        95.1467 
 310   0.0000       3.514289        95.6287 
 311   0.0000       3.524968        95.9193 
 312   0.0000       3.534135        96.1687 
 313   0.0000       3.558136        96.8218 
 314   0.0000       3.570414        97.1559 
 315   0.0000       3.576404        97.3189 
 316   0.0000       3.601076        97.9903 
 317   0.0000       3.608008        98.1789 
 318   0.0000       3.618548        98.4657 
 319   0.0000       3.639035        99.0232 
 320   0.0000       3.645962        99.2117 
 321   0.0000       3.652657        99.3939 
 322   0.0000       3.672182        99.9251 
 323   0.0000       3.688665       100.3737 
 324   0.0000       3.703493       100.7772 
 325   0.0000       3.709698       100.9460 
 326   0.0000       3.716653       101.1353 
 327   0.0000       3.743632       101.8694 
 328   0.0000       3.760301       102.3230 
 329   0.0000       3.800808       103.4252 
 330   0.0000       3.818766       103.9139 
 331   0.0000       3.828952       104.1911 
 332   0.0000       3.847279       104.6898 
 333   0.0000       3.871492       105.3486 
 334   0.0000       3.876920       105.4964 
 335   0.0000       3.882860       105.6580 
 336   0.0000       3.910179       106.4014 
 337   0.0000       3.912718       106.4705 
 338   0.0000       3.936897       107.1284 
 339   0.0000       3.956837       107.6710 
 340   0.0000       3.976860       108.2159 
 341   0.0000       3.986393       108.4753 
 342   0.0000       3.999939       108.8439 
 343   0.0000       4.034330       109.7797 
 344   0.0000       4.051515       110.2473 
 345   0.0000       4.062734       110.5526 
 346   0.0000       4.080920       111.0475 
 347   0.0000       4.112557       111.9084 
 348   0.0000       4.124036       112.2207 
 349   0.0000       4.149709       112.9193 
 350   0.0000       4.160409       113.2105 
 351   0.0000       4.182332       113.8070 
 352   0.0000       4.226253       115.0022 
 353   0.0000       4.237843       115.3176 
 354   0.0000       4.250604       115.6648 
 355   0.0000       4.291612       116.7807 
 356   0.0000       4.299437       116.9936 
 357   0.0000       4.331224       117.8586 
 358   0.0000       4.347763       118.3086 
 359   0.0000       4.367244       118.8388 
 360   0.0000       4.381632       119.2303 
 361   0.0000       4.402241       119.7911 
 362   0.0000       4.432547       120.6157 
 363   0.0000       4.457018       121.2816 
 364   0.0000       4.483545       122.0035 
 365   0.0000       4.491847       122.2294 
 366   0.0000       4.505842       122.6102 
 367   0.0000       4.566359       124.2569 
 368   0.0000       4.572306       124.4188 
 369   0.0000       4.613194       125.5314 
 370   0.0000       4.633111       126.0734 
 371   0.0000       4.720971       128.4642 
 372   0.0000       4.736330       128.8821 
 373   0.0000       4.753319       129.3444 
 374   0.0000       4.786532       130.2482 
 375   0.0000       4.828777       131.3977 
 376   0.0000       4.876575       132.6984 
 377   0.0000       4.923215       133.9675 
 378   0.0000       4.941795       134.4731 
 379   0.0000       4.978549       135.4732 
 380   0.0000       4.995277       135.9284 
 381   0.0000       5.019263       136.5811 
 382   0.0000       5.028574       136.8344 
 383   0.0000       5.040151       137.1495 
 384   0.0000       5.107874       138.9923 
 385   0.0000       5.123025       139.4046 
 386   0.0000       5.150828       140.1611 
 387   0.0000       5.181674       141.0005 
 388   0.0000       5.226428       142.2183 
 389   0.0000       5.232681       142.3885 
 390   0.0000       5.326126       144.9312 
 391   0.0000       5.382723       146.4713 
 392   0.0000       5.394277       146.7857 
 393   0.0000       5.403421       147.0346 
 394   0.0000       5.428057       147.7049 
 395   0.0000       5.434738       147.8867 
 396   0.0000       5.440816       148.0521 
 397   0.0000       5.539345       150.7332 
 398   0.0000       5.617616       152.8631 
 399   0.0000       5.621477       152.9682 
 400   0.0000       5.666567       154.1951 
 401   0.0000       5.747252       156.3907 
 402   0.0000       5.776978       157.1996 
 403   0.0000       5.802015       157.8809 
 404   0.0000       5.820962       158.3964 
 405   0.0000       5.966533       162.3576 
 406   0.0000       5.969851       162.4479 
 407   0.0000       5.972430       162.5181 
 408   0.0000       5.973203       162.5391 
 409   0.0000       5.973861       162.5570 
 410   0.0000       5.974904       162.5854 
 411   0.0000       5.986670       162.9056 
 412   0.0000       5.999059       163.2427 
 413   0.0000       6.059447       164.8859 
 414   0.0000       6.274081       170.7264 
 415   0.0000       6.300912       171.4565 
 416   0.0000       6.416803       174.6101 
 417   0.0000       6.560183       178.5117 
 418   0.0000       6.590536       179.3376 
 419   0.0000       6.718388       182.8166 
 420   0.0000       6.735795       183.2903 
 421   0.0000       6.848578       186.3593 
 422   0.0000       6.911559       188.0731 
 423   0.0000       6.977515       189.8678 
 424   0.0000       7.053036       191.9229 
 425   0.0000       7.136102       194.1832 
 426   0.0000       7.219477       196.4520 
 427   0.0000       7.264495       197.6770 
 428   0.0000       7.409518       201.6232 
 429   0.0000      22.240154       605.1854 
 430   0.0000      22.328281       607.5834 
 431   0.0000      22.482694       611.7852 
 432   0.0000      22.650151       616.3419 
 433   0.0000      22.719997       618.2425 
 434   0.0000      22.921884       623.7362 
 435   0.0000      22.968134       624.9947 
 436   0.0000      23.438366       637.7904 
 437   0.0000      31.840889       866.4346 
 438   0.0000      43.807842      1192.0720 
 439   0.0000      43.981272      1196.7913 

                 SPIN DOWN ORBITALS
  NO   OCC          E(Eh)            E(eV) 
   0   1.0000    -321.179655     -8739.7427 
   1   1.0000     -37.947963     -1032.6166 
   2   1.0000     -33.239610      -904.4958 
   3   1.0000     -33.239256      -904.4861 
   4   1.0000     -33.238246      -904.4586 
   5   1.0000     -18.422077      -501.2902 
   6   1.0000     -18.383778      -500.2480 
   7   1.0000     -13.750037      -374.1575 
   8   1.0000      -9.691625      -263.7225 
   9   1.0000      -9.655611      -262.7425 
  10   1.0000      -9.626020      -261.9373 
  11   1.0000      -9.622967      -261.8542 
  12   1.0000      -9.609068      -261.4760 
  13   1.0000      -9.596590      -261.1365 
  14   1.0000      -9.585752      -260.8416 
  15   1.0000      -9.582171      -260.7441 
  16   1.0000      -3.777278      -102.7849 
  17   1.0000      -2.314490       -62.9805 
  18   1.0000      -2.312102       -62.9155 
  19   1.0000      -2.309671       -62.8493 
  20   1.0000      -0.603810       -16.4305 
  21   1.0000      -0.587561       -15.9883 
  22   1.0000      -0.573576       -15.6078 
  23   1.0000      -0.479627       -13.0513 
  24   1.0000      -0.429017       -11.6742 
  25   1.0000      -0.367741       -10.0067 
  26   1.0000      -0.344138        -9.3645 
  27   1.0000      -0.307349        -8.3634 
  28   1.0000      -0.240984        -6.5575 
  29   1.0000      -0.231352        -6.2954 
  30   1.0000      -0.211411        -5.7528 
  31   1.0000      -0.168979        -4.5981 
  32   1.0000      -0.157128        -4.2757 
  33   1.0000      -0.147021        -4.0007 
  34   1.0000      -0.130605        -3.5539 
  35   1.0000      -0.118353        -3.2205 
  36   1.0000      -0.096496        -2.6258 
  37   1.0000      -0.082111        -2.2343 
  38   1.0000      -0.074089        -2.0161 
  39   1.0000      -0.061697        -1.6788 
  40   1.0000      -0.056584        -1.5397 
  41   1.0000      -0.032085        -0.8731 
  42   1.0000      -0.020358        -0.5540 
  43   1.0000       0.001736         0.0472 
  44   1.0000       0.005851         0.1592 
  45   1.0000       0.018940         0.5154 
  46   1.0000       0.062938         1.7126 
  47   1.0000       0.088029         2.3954 
  48   1.0000       0.111373         3.0306 
  49   1.0000       0.116549         3.1715 
  50   1.0000       0.117222         3.1898 
  51   1.0000       0.118392         3.2216 
  52   1.0000       0.128596         3.4993 
  53   1.0000       0.131854         3.5879 
  54   1.0000       0.150497         4.0952 
  55   0.0000       0.188207         5.1214 
  56   0.0000       0.209995         5.7142 
  57   0.0000       0.237708         6.4684 
  58   0.0000       0.254785         6.9331 
  59   0.0000       0.263813         7.1787 
  60   0.0000       0.268479         7.3057 
  61   0.0000       0.275770         7.5041 
  62   0.0000       0.293919         7.9979 
  63   0.0000       0.303316         8.2537 
  64   0.0000       0.305101         8.3022 
  65   0.0000       0.325457         8.8561 
  66   0.0000       0.333734         9.0814 
  67   0.0000       0.337087         9.1726 
  68   0.0000       0.351361         9.5610 
  69   0.0000       0.355271         9.6674 
  70   0.0000       0.365149         9.9362 
  71   0.0000       0.366934         9.9848 
  72   0.0000       0.376600        10.2478 
  73   0.0000       0.390733        10.6324 
  74   0.0000       0.403750        10.9866 
  75   0.0000       0.405748        11.0410 
  76   0.0000       0.426332        11.6011 
  77   0.0000       0.432651        11.7730 
  78   0.0000       0.441599        12.0165 
  79   0.0000       0.444426        12.0934 
  80   0.0000       0.451786        12.2937 
  81   0.0000       0.461178        12.5493 
  82   0.0000       0.463352        12.6084 
  83   0.0000       0.471803        12.8384 
  84   0.0000       0.476525        12.9669 
  85   0.0000       0.481288        13.0965 
  86   0.0000       0.490176        13.3384 
  87   0.0000       0.501198        13.6383 
  88   0.0000       0.504893        13.7388 
  89   0.0000       0.514774        14.0077 
  90   0.0000       0.522415        14.2156 
  91   0.0000       0.529377        14.4051 
  92   0.0000       0.531257        14.4562 
  93   0.0000       0.541712        14.7407 
  94   0.0000       0.545769        14.8511 
  95   0.0000       0.550116        14.9694 
  96   0.0000       0.573173        15.5968 
  97   0.0000       0.586510        15.9597 
  98   0.0000       0.590654        16.0725 
  99   0.0000       0.593063        16.1381 
 100   0.0000       0.595286        16.1986 
 101   0.0000       0.608269        16.5519 
 102   0.0000       0.615577        16.7507 
 103   0.0000       0.622555        16.9406 
 104   0.0000       0.625430        17.0188 
 105   0.0000       0.634864        17.2755 
 106   0.0000       0.642098        17.4724 
 107   0.0000       0.646581        17.5944 
 108   0.0000       0.649623        17.6771 
 109   0.0000       0.655372        17.8336 
 110   0.0000       0.672330        18.2950 
 111   0.0000       0.685800        18.6616 
 112   0.0000       0.687093        18.6967 
 113   0.0000       0.695954        18.9379 
 114   0.0000       0.704726        19.1766 
 115   0.0000       0.712569        19.3900 
 116   0.0000       0.722184        19.6516 
 117   0.0000       0.734693        19.9920 
 118   0.0000       0.752798        20.4847 
 119   0.0000       0.761005        20.7080 
 120   0.0000       0.773322        21.0431 
 121   0.0000       0.775843        21.1118 
 122   0.0000       0.792097        21.5541 
 123   0.0000       0.802598        21.8398 
 124   0.0000       0.808003        21.9869 
 125   0.0000       0.830315        22.5940 
 126   0.0000       0.847002        23.0481 
 127   0.0000       0.851878        23.1808 
 128   0.0000       0.867420        23.6037 
 129   0.0000       0.875001        23.8100 
 130   0.0000       0.888785        24.1851 
 131   0.0000       0.906145        24.6574 
 132   0.0000       0.909196        24.7405 
 133   0.0000       0.924724        25.1630 
 134   0.0000       0.940064        25.5804 
 135   0.0000       0.952994        25.9323 
 136   0.0000       0.964556        26.2469 
 137   0.0000       0.982471        26.7344 
 138   0.0000       0.996470        27.1153 
 139   0.0000       1.006466        27.3873 
 140   0.0000       1.016075        27.6488 
 141   0.0000       1.022955        27.8360 
 142   0.0000       1.042416        28.3656 
 143   0.0000       1.054278        28.6884 
 144   0.0000       1.061609        28.8878 
 145   0.0000       1.076386        29.2900 
 146   0.0000       1.087052        29.5802 
 147   0.0000       1.096340        29.8329 
 148   0.0000       1.107587        30.1390 
 149   0.0000       1.125561        30.6281 
 150   0.0000       1.139756        31.0144 
 151   0.0000       1.149399        31.2767 
 152   0.0000       1.162596        31.6359 
 153   0.0000       1.176289        32.0085 
 154   0.0000       1.188535        32.3417 
 155   0.0000       1.190563        32.3969 
 156   0.0000       1.202827        32.7306 
 157   0.0000       1.225181        33.3389 
 158   0.0000       1.234059        33.5805 
 159   0.0000       1.263011        34.3683 
 160   0.0000       1.267509        34.4907 
 161   0.0000       1.271047        34.5869 
 162   0.0000       1.285706        34.9858 
 163   0.0000       1.304757        35.5042 
 164   0.0000       1.318532        35.8791 
 165   0.0000       1.334627        36.3170 
 166   0.0000       1.342407        36.5288 
 167   0.0000       1.369997        37.2795 
 168   0.0000       1.378005        37.4974 
 169   0.0000       1.388007        37.7696 
 170   0.0000       1.406773        38.2802 
 171   0.0000       1.432767        38.9876 
 172   0.0000       1.440054        39.1859 
 173   0.0000       1.449698        39.4483 
 174   0.0000       1.466431        39.9036 
 175   0.0000       1.484909        40.4064 
 176   0.0000       1.491988        40.5991 
 177   0.0000       1.508897        41.0592 
 178   0.0000       1.532332        41.6969 
 179   0.0000       1.538473        41.8640 
 180   0.0000       1.552475        42.2450 
 181   0.0000       1.559811        42.4446 
 182   0.0000       1.583145        43.0796 
 183   0.0000       1.588069        43.2135 
 184   0.0000       1.607078        43.7308 
 185   0.0000       1.636892        44.5421 
 186   0.0000       1.647888        44.8413 
 187   0.0000       1.670817        45.4652 
 188   0.0000       1.709311        46.5127 
 189   0.0000       1.718114        46.7523 
 190   0.0000       1.728761        47.0420 
 191   0.0000       1.735277        47.2193 
 192   0.0000       1.737936        47.2916 
 193   0.0000       1.748721        47.5851 
 194   0.0000       1.771204        48.1969 
 195   0.0000       1.776643        48.3449 
 196   0.0000       1.796449        48.8839 
 197   0.0000       1.801149        49.0117 
 198   0.0000       1.819797        49.5192 
 199   0.0000       1.849488        50.3271 
 200   0.0000       1.856130        50.5079 
 201   0.0000       1.882168        51.2164 
 202   0.0000       1.887539        51.3625 
 203   0.0000       1.910785        51.9951 
 204   0.0000       1.928260        52.4706 
 205   0.0000       1.931583        52.5610 
 206   0.0000       1.963131        53.4195 
 207   0.0000       1.967763        53.5456 
 208   0.0000       1.989418        54.1348 
 209   0.0000       2.001314        54.4585 
 210   0.0000       2.017677        54.9038 
 211   0.0000       2.029001        55.2119 
 212   0.0000       2.055097        55.9220 
 213   0.0000       2.063117        56.1403 
 214   0.0000       2.080202        56.6052 
 215   0.0000       2.091871        56.9227 
 216   0.0000       2.098732        57.1094 
 217   0.0000       2.114453        57.5372 
 218   0.0000       2.128552        57.9208 
 219   0.0000       2.148017        58.4505 
 220   0.0000       2.180473        59.3337 
 221   0.0000       2.184819        59.4519 
 222   0.0000       2.198346        59.8200 
 223   0.0000       2.215866        60.2968 
 224   0.0000       2.235051        60.8188 
 225   0.0000       2.239219        60.9322 
 226   0.0000       2.257239        61.4226 
 227   0.0000       2.274449        61.8909 
 228   0.0000       2.281958        62.0952 
 229   0.0000       2.317097        63.0514 
 230   0.0000       2.333898        63.5086 
 231   0.0000       2.346765        63.8587 
 232   0.0000       2.364364        64.3376 
 233   0.0000       2.366600        64.3984 
 234   0.0000       2.383556        64.8599 
 235   0.0000       2.391154        65.0666 
 236   0.0000       2.402605        65.3782 
 237   0.0000       2.412085        65.6362 
 238   0.0000       2.437214        66.3200 
 239   0.0000       2.448424        66.6250 
 240   0.0000       2.463001        67.0217 
 241   0.0000       2.483247        67.5726 
 242   0.0000       2.492911        67.8356 
 243   0.0000       2.529488        68.8309 
 244   0.0000       2.572032        69.9885 
 245   0.0000       2.582269        70.2671 
 246   0.0000       2.586512        70.3826 
 247   0.0000       2.611755        71.0695 
 248   0.0000       2.620622        71.3107 
 249   0.0000       2.644422        71.9584 
 250   0.0000       2.669151        72.6313 
 251   0.0000       2.678625        72.8891 
 252   0.0000       2.695947        73.3605 
 253   0.0000       2.708402        73.6994 
 254   0.0000       2.729352        74.2694 
 255   0.0000       2.743625        74.6578 
 256   0.0000       2.758605        75.0655 
 257   0.0000       2.774529        75.4988 
 258   0.0000       2.786149        75.8150 
 259   0.0000       2.800632        76.2091 
 260   0.0000       2.820001        76.7361 
 261   0.0000       2.834524        77.1313 
 262   0.0000       2.840455        77.2927 
 263   0.0000       2.847333        77.4799 
 264   0.0000       2.857458        77.7554 
 265   0.0000       2.863502        77.9198 
 266   0.0000       2.897072        78.8333 
 267   0.0000       2.913234        79.2731 
 268   0.0000       2.926981        79.6472 
 269   0.0000       2.933107        79.8139 
 270   0.0000       2.954741        80.4026 
 271   0.0000       2.967563        80.7515 
 272   0.0000       2.981946        81.1429 
 273   0.0000       3.003103        81.7186 
 274   0.0000       3.013577        82.0036 
 275   0.0000       3.026704        82.3608 
 276   0.0000       3.049311        82.9760 
 277   0.0000       3.062753        83.3417 
 278   0.0000       3.068688        83.5032 
 279   0.0000       3.073423        83.6321 
 280   0.0000       3.110438        84.6393 
 281   0.0000       3.120968        84.9259 
 282   0.0000       3.123867        85.0047 
 283   0.0000       3.142310        85.5066 
 284   0.0000       3.163481        86.0827 
 285   0.0000       3.167132        86.1820 
 286   0.0000       3.178305        86.4861 
 287   0.0000       3.201859        87.1270 
 288   0.0000       3.218582        87.5821 
 289   0.0000       3.245871        88.3246 
 290   0.0000       3.253671        88.5369 
 291   0.0000       3.272661        89.0536 
 292   0.0000       3.281906        89.3052 
 293   0.0000       3.294867        89.6579 
 294   0.0000       3.323999        90.4506 
 295   0.0000       3.333345        90.7049 
 296   0.0000       3.337021        90.8049 
 297   0.0000       3.344460        91.0074 
 298   0.0000       3.364840        91.5619 
 299   0.0000       3.376230        91.8719 
 300   0.0000       3.386248        92.1445 
 301   0.0000       3.393197        92.3336 
 302   0.0000       3.413703        92.8916 
 303   0.0000       3.426188        93.2313 
 304   0.0000       3.433783        93.4380 
 305   0.0000       3.443529        93.7032 
 306   0.0000       3.461015        94.1790 
 307   0.0000       3.475381        94.5699 
 308   0.0000       3.479932        94.6938 
 309   0.0000       3.497042        95.1594 
 310   0.0000       3.514972        95.6472 
 311   0.0000       3.525476        95.9331 
 312   0.0000       3.534426        96.1766 
 313   0.0000       3.558770        96.8391 
 314   0.0000       3.571125        97.1753 
 315   0.0000       3.576976        97.3345 
 316   0.0000       3.601462        98.0008 
 317   0.0000       3.608446        98.1908 
 318   0.0000       3.618887        98.4749 
 319   0.0000       3.639692        99.0410 
 320   0.0000       3.646285        99.2204 
 321   0.0000       3.653108        99.4061 
 322   0.0000       3.672556        99.9353 
 323   0.0000       3.689120       100.3860 
 324   0.0000       3.703789       100.7852 
 325   0.0000       3.710127       100.9577 
 326   0.0000       3.717297       101.1528 
[...]
     15       0.062681  -0.037999   0.008345  -0.021275  -0.000236   0.000954
     16       0.004690  -0.005908  -0.008388   0.067551   0.002184  -0.001497
     17       0.012668  -0.005925   0.008784  -0.046483  -0.001215   0.001009
     18       0.000712   0.001789   0.000644   0.001284  -0.009543   0.033652
     19      -0.000398  -0.001861  -0.001718  -0.002490   0.015759  -0.071565
     20       0.000015   0.000803   0.000954   0.000693  -0.004471   0.017526
     21       0.000212   0.002429  -0.001302  -0.001007   0.037313   0.005235
     22       0.000348   0.001092  -0.002143  -0.002160   0.063883   0.012519
     23      -0.000205   0.000511  -0.001026  -0.000113   0.007077   0.000856
     24      -0.000097  -0.000328  -0.000371  -0.000172   0.000576  -0.002334
     25      -0.000543   0.000518   0.000008   0.000054   0.000963  -0.002968
     26       0.000043   0.000024  -0.000057  -0.000026   0.000122  -0.000497
     27       0.000154  -0.001216   0.000199  -0.000119   0.012589   0.006917
     28       0.000076   0.000194   0.000327   0.000248  -0.027181  -0.012984
     29       0.000211  -0.000245   0.000072  -0.000014   0.005090   0.002761
     30      -0.000308   0.001026   0.000060   0.000142   0.001018   0.000327
     31       0.000120   0.000138  -0.000127   0.000024  -0.001379   0.000857
     32      -0.000015   0.000427  -0.000043   0.000062   0.000295  -0.000074
     33       0.098942   0.132145  -0.197475  -0.022485  -0.011141  -0.005381
     34       0.311499   0.440776  -0.608977  -0.078652  -0.024794  -0.008321
     35       0.184651   0.266667  -0.392365  -0.052563  -0.017249  -0.006732
     36       0.063122   0.113433   0.115366   0.023188   0.001205  -0.010637
     37      -0.298658  -0.533419  -0.492892  -0.109920  -0.007972   0.028311
     38       0.207719   0.377970   0.373688   0.080434   0.005199  -0.022172
     39      -0.797080   0.480276  -0.078641   0.156413  -0.001613  -0.012280
     40       0.057082  -0.036384   0.002937  -0.002659   0.000204   0.001323
     41      -0.240669   0.138860  -0.020930   0.037565  -0.000277  -0.002451
     42       0.034863  -0.024081  -0.016095   0.105638   0.002771  -0.001395
     43      -0.116480   0.113903   0.131868  -0.810388  -0.024549   0.016848
     44       0.075447  -0.073298  -0.082809   0.517410   0.016616  -0.010617
     45      -0.004657  -0.014500  -0.008730  -0.014340   0.095942  -0.406530
     46       0.007570   0.026679   0.012432   0.027904  -0.195716   0.849279
     47      -0.002567  -0.008270  -0.004782  -0.007107   0.049028  -0.209627
     48      -0.002917  -0.013992   0.013260   0.014007  -0.451416  -0.081519
     49      -0.004080  -0.022268   0.017351   0.022686  -0.761560  -0.142131
     50      -0.002060  -0.004265   0.004230   0.002399  -0.085022  -0.015692
     51      -0.001300   0.001580   0.002007   0.002508  -0.171572  -0.080768
     52       0.001728  -0.004402  -0.005123  -0.004800   0.340683   0.159857
     53      -0.000246   0.000523   0.001985   0.000992  -0.068908  -0.032601
     54       0.019561  -0.009847   0.003172   0.001176   0.000751  -0.010443
     55      -0.000984   0.001569  -0.000812   0.001425   0.000228  -0.001949
     56       0.001372   0.001809  -0.001879   0.003531  -0.000568  -0.001826
     57       0.000779  -0.001336   0.000496  -0.003295   0.000125  -0.001295
     58      -0.000173  -0.005696  -0.005193   0.018380   0.001499  -0.005204
     59       0.001145  -0.001667  -0.001568  -0.018852  -0.001579   0.003670
     60      -0.000008   0.000019   0.000001   0.000004   0.000005   0.000002
     61      -0.000006   0.000019   0.000004   0.000003  -0.000019  -0.000018
     62      -0.000001   0.000006   0.000001   0.000001   0.000003  -0.000000
                 60         61         62    
      0       0.000101  -0.000129  -0.000069
      1       0.000447  -0.000147  -0.000049
      2      -0.000008  -0.000036  -0.000018
      3       0.000810  -0.000079   0.000007
      4      -0.000068   0.000005   0.000024
      5       0.000259  -0.000027   0.000009
      6       0.000187   0.057015   0.035471
      7       0.000043   0.019477  -0.055015
      8       0.000077   0.000612   0.037510
      9       0.000472   0.000012  -0.000098
     10       0.000305  -0.000279   0.000398
     11       0.000968  -0.000492  -0.000322
     12       0.001830  -0.000684  -0.000045
     13      -0.001450  -0.000666  -0.000438
     14       0.000724  -0.000033  -0.000046
     15       0.000514   0.002901   0.001246
     16       0.000328   0.001918  -0.002019
     17      -0.000110  -0.000886   0.002904
     18       0.003164  -0.000371  -0.000113
     19      -0.007484   0.001355   0.000084
     20       0.001741   0.000290   0.000270
     21       0.020104  -0.000023  -0.000161
     22       0.031063  -0.000080   0.000109
     23       0.004037   0.000004  -0.000018
     24       0.000428   0.000495   0.000253
     25      -0.000989   0.000117   0.000070
     26       0.000208   0.000063   0.000039
     27      -0.035246   0.000020   0.000095
     28       0.067435  -0.000061   0.000040
     29      -0.014217  -0.000045   0.000007
     30      -0.003708   0.000123  -0.000016
     31      -0.000847   0.000010  -0.000068
     32      -0.001092   0.000077   0.000010
     33      -0.004922   0.001708   0.000457
     34      -0.010106  -0.001362   0.002186
     35      -0.007027  -0.001662   0.001107
     36      -0.003794  -0.000687   0.002134
     37       0.008282  -0.001238  -0.002576
     38      -0.006502   0.003324  -0.001450
     39      -0.008239  -0.014682  -0.009755
     40       0.000742   0.001718   0.000234
     41      -0.001854  -0.007640  -0.005408
     42       0.000738   0.002921  -0.005559
     43      -0.004102  -0.009952   0.015856
     44       0.002865   0.008618  -0.012190
     45      -0.040711   0.004833  -0.000046
     46       0.087267  -0.010326   0.001352
     47      -0.021215   0.001524  -0.001156
     48      -0.212788   0.001020   0.000450
     49      -0.352009   0.002226   0.000931
     50      -0.040699   0.000186   0.000103
     51       0.403951  -0.000382  -0.000055
     52      -0.788547   0.000790   0.000241
     53       0.163002  -0.000051  -0.000100
     54      -0.002592  -0.896043  -0.374029
     55      -0.000346   0.048567  -0.007627
     56      -0.001230  -0.196267  -0.051804
     57       0.000043   0.082543  -0.119591
     58      -0.000647  -0.326364   0.776150
     59       0.000076   0.196560  -0.484111
     60      -0.000007   0.000005   0.000004
     61      -0.000001  -0.000000  -0.000002
     62      -0.000004   0.000002   0.000000


-----------
IR SPECTRUM
-----------

 Mode   freq       eps      Int      T**2         TX        TY        TZ
       cm**-1   L/(mol*cm) km/mol    a.u.
----------------------------------------------------------------------------
  6:     45.25   0.000084    0.42  0.000576  ( 0.019180 -0.008968 -0.011314)
  7:     51.73   0.000007    0.03  0.000040  ( 0.000118  0.006229 -0.000834)
  8:     84.68   0.000161    0.82  0.000595  ( 0.001712  0.024187 -0.002659)
  9:     98.82   0.000681    3.44  0.002151  (-0.019516  0.041317 -0.007920)
 10:    131.42   0.000549    2.78  0.001304  (-0.024751  0.026285  0.000971)
 11:    168.26   0.001128    5.70  0.002092  (-0.044494  0.002238 -0.010364)
 12:    182.18   0.004068   20.56  0.006968  ( 0.068514  0.045058  0.015615)
 13:    240.54   0.000891    4.50  0.001156  (-0.021233 -0.000899  0.026548)
 14:    293.99   0.000428    2.17  0.000455  (-0.000835 -0.021308  0.000043)
 15:    331.03   0.004904   24.78  0.004623  (-0.032680  0.027855 -0.052722)
 16:    345.03   0.001424    7.19  0.001288  (-0.021079  0.028697  0.004445)
 17:    415.57   0.000984    4.97  0.000739  (-0.019183 -0.018857 -0.003919)
 18:    429.97   0.001277    6.45  0.000927  (-0.021768 -0.020301 -0.006384)
 19:    447.07   0.000154    0.78  0.000107  ( 0.010310 -0.000828 -0.000488)
 20:    467.95   0.000166    0.84  0.000111  (-0.007743  0.004827  0.005245)
 21:    524.53   0.003362   16.99  0.002000  ( 0.044293  0.004625  0.004149)
 22:    597.86   0.001398    7.06  0.000730  (-0.019415 -0.016749 -0.008491)
 23:    613.33   0.001324    6.69  0.000674  (-0.003545 -0.007108  0.024711)
 24:    626.88   0.001719    8.69  0.000856  ( 0.011605 -0.001988 -0.026779)
 25:    686.54   0.001205    6.09  0.000548  ( 0.023318 -0.001943 -0.000514)
 26:    752.25   0.000853    4.31  0.000354  ( 0.004029 -0.002689 -0.018178)
 27:    756.53   0.000769    3.89  0.000317  ( 0.010756 -0.014195 -0.000469)
 28:    771.66   0.002748   13.89  0.001111  (-0.007148 -0.001496  0.032527)
 29:    785.37   0.008906   45.01  0.003539  (-0.023426  0.006650  0.054274)
 30:    829.98   0.000831    4.20  0.000312  (-0.004352 -0.017117  0.000723)
 31:    855.46   0.003245   16.40  0.001184  (-0.010887  0.004669  0.032304)
 32:    928.18   0.002182   11.03  0.000734  ( 0.017772 -0.002024 -0.020338)
 33:    947.75   0.012342   62.37  0.004064  ( 0.026130 -0.045474 -0.036238)
 34:    995.81   0.019360   97.84  0.006067  (-0.050230  0.030209  0.051297)
 35:   1048.19   0.008517   43.04  0.002536  ( 0.045374 -0.019162 -0.010469)
 36:   1080.11   0.001477    7.47  0.000427  (-0.003776  0.014364 -0.014360)
 37:   1118.02   0.003432   17.34  0.000958  (-0.028603  0.004239  0.011033)
 38:   1141.09   0.000836    4.22  0.000229  (-0.005366 -0.010888  0.009009)
 39:   1184.27   0.000662    3.35  0.000174  (-0.005781  0.007216  0.009432)
 40:   1194.46   0.002626   13.27  0.000686  ( 0.015224 -0.005369 -0.020625)
 41:   1274.79   0.002233   11.28  0.000547  (-0.012953  0.019049 -0.003990)
 42:   1275.50   0.006327   31.97  0.001548  (-0.018114 -0.033800 -0.008798)
 43:   1292.54   0.013880   70.15  0.003351  (-0.053870 -0.020293 -0.006120)
 44:   1307.25   0.032634  164.92  0.007790  ( 0.069237  0.044887  0.031329)
 45:   1319.25   0.055142  278.67  0.013044  (-0.109151 -0.030266 -0.014621)
 46:   1348.07   0.001651    8.34  0.000382  ( 0.017687  0.002852 -0.007822)
 47:   1395.01   0.004287   21.66  0.000959  ( 0.022498  0.020467  0.005817)
 48:   1397.93   0.002880   14.55  0.000643  (-0.020309 -0.014924  0.002780)
 49:   1420.01   0.000922    4.66  0.000203  ( 0.011690  0.007278  0.003617)
 50:   1490.72   0.126609  639.83  0.026504  (-0.149421 -0.056353 -0.031649)
 51:   1502.80   0.010610   53.62  0.002203  ( 0.018044  0.043311 -0.001340)
 52:   1519.19   0.014210   71.81  0.002919  (-0.045904  0.026544 -0.010350)
 53:   1612.02   0.002374   12.00  0.000460  (-0.018727 -0.008399  0.006199)
 54:   2848.48   0.036048  182.17  0.003949  ( 0.060117  0.006250 -0.017208)
 55:   2867.11   0.129023  652.03  0.014043  (-0.109274 -0.005191 -0.045556)
 56:   2900.29   0.014096   71.24  0.001517  ( 0.013712  0.035478  0.008366)
 57:   2960.44   0.012009   60.69  0.001266  (-0.012254  0.029105 -0.016392)
 58:   2998.59   0.015238   77.01  0.001586  ( 0.027387  0.027998  0.007203)
 59:   3008.40   0.017896   90.44  0.001856  ( 0.024804 -0.032797  0.012862)
 60:   3034.39   0.022742  114.93  0.002339  (-0.006418  0.047894 -0.001952)
 61:   3294.23   0.009797   49.51  0.000928  (-0.028151  0.010329  0.005372)
 62:   3374.52   0.001474    7.45  0.000136  (-0.003949 -0.008649  0.006776)

* The epsilon (eps) is given for a Dirac delta lineshape.
** The dipole moment derivative (T) already includes vibrational overlap.

The first frequency considered to be a vibration is 6
The total number of vibrations considered is 57


--------------------------
THERMOCHEMISTRY AT 298.15K
--------------------------

Temperature         ... 298.15 K
Pressure            ... 1.00 atm
Total Mass          ... 214.72 AMU

Throughout the following assumptions are being made:
  (1) The electronic state is orbitally nondegenerate
      but the spin degeneracy is treated
  (2) There are no thermally accessible electronically excited states
  (3) Hindered rotations indicated by low frequency modes are not
      treated as such but are treated as vibrations and this may
      cause some error
  (4) All equations used are the standard statistical mechanics
      equations for an ideal gas
  (5) All vibrations are strictly harmonic

freq.      45.25  E(vib)   ...       0.53 
freq.      51.73  E(vib)   ...       0.52 
freq.      84.68  E(vib)   ...       0.48 
freq.      98.82  E(vib)   ...       0.46 
freq.     131.42  E(vib)   ...       0.42 
freq.     168.26  E(vib)   ...       0.38 
freq.     182.18  E(vib)   ...       0.37 
freq.     240.54  E(vib)   ...       0.31 
freq.     293.99  E(vib)   ...       0.27 
freq.     331.03  E(vib)   ...       0.24 
freq.     345.03  E(vib)   ...       0.23 
freq.     415.57  E(vib)   ...       0.18 
freq.     429.97  E(vib)   ...       0.18 
freq.     447.07  E(vib)   ...       0.17 
freq.     467.95  E(vib)   ...       0.16 
freq.     524.53  E(vib)   ...       0.13 
freq.     597.86  E(vib)   ...       0.10 
freq.     613.33  E(vib)   ...       0.10 
freq.     626.88  E(vib)   ...       0.09 
freq.     686.54  E(vib)   ...       0.07 
freq.     752.25  E(vib)   ...       0.06 
freq.     756.53  E(vib)   ...       0.06 
freq.     771.66  E(vib)   ...       0.05 
freq.     785.37  E(vib)   ...       0.05 
freq.     829.98  E(vib)   ...       0.04 
freq.     855.46  E(vib)   ...       0.04 
freq.     928.18  E(vib)   ...       0.03 
freq.     947.75  E(vib)   ...       0.03 
freq.     995.81  E(vib)   ...       0.02 
freq.    1048.19  E(vib)   ...       0.02 
freq.    1080.11  E(vib)   ...       0.02 
freq.    1118.02  E(vib)   ...       0.01 
freq.    1141.09  E(vib)   ...       0.01 
freq.    1184.27  E(vib)   ...       0.01 
freq.    1194.46  E(vib)   ...       0.01 
freq.    1274.79  E(vib)   ...       0.01 
freq.    1275.50  E(vib)   ...       0.01 
freq.    1292.54  E(vib)   ...       0.01 
freq.    1307.25  E(vib)   ...       0.01 
freq.    1319.25  E(vib)   ...       0.01 
freq.    1348.07  E(vib)   ...       0.01 
freq.    1395.01  E(vib)   ...       0.00 
freq.    1397.93  E(vib)   ...       0.00 
freq.    1420.01  E(vib)   ...       0.00 
freq.    1490.72  E(vib)   ...       0.00 
freq.    1502.80  E(vib)   ...       0.00 
freq.    1519.19  E(vib)   ...       0.00 
freq.    1612.02  E(vib)   ...       0.00 
freq.    2848.48  E(vib)   ...       0.00 
freq.    2867.11  E(vib)   ...       0.00 
freq.    2900.29  E(vib)   ...       0.00 
freq.    2960.44  E(vib)   ...       0.00 
freq.    2998.59  E(vib)   ...       0.00 
freq.    3008.40  E(vib)   ...       0.00 
freq.    3034.39  E(vib)   ...       0.00 
freq.    3294.23  E(vib)   ...       0.00 
freq.    3374.52  E(vib)   ...       0.00 

------------
INNER ENERGY
------------

The inner energy is: U= E(el) + E(ZPE) + E(vib) + E(rot) + E(trans)
    E(el)   - is the total energy from the electronic structure calculation
              = E(kin-el) + E(nuc-el) + E(el-el) + E(nuc-nuc)
    E(ZPE)  - the the zero temperature vibrational energy from the frequency calculation
    E(vib)  - the the finite temperature correction to E(ZPE) due to population
              of excited vibrational states
    E(rot)  - is the rotational thermal energy
    E(trans)- is the translational thermal energy

Summary of contributions to the inner energy U:
Electronic energy                ...  -2155.32100297 Eh
Zero point energy                ...      0.15175628 Eh      95.23 kcal/mol
Thermal vibrational correction   ...      0.00947132 Eh       5.94 kcal/mol
Thermal rotational correction    ...      0.00141627 Eh       0.89 kcal/mol
Thermal translational correction ...      0.00141627 Eh       0.89 kcal/mol
-----------------------------------------------------------------------
Total thermal energy                  -2155.15694282 Eh


Summary of corrections to the electronic energy:
(perhaps to be used in another calculation)
Total thermal correction                  0.01230386 Eh       7.72 kcal/mol
Non-thermal (ZPE) correction              0.15175628 Eh      95.23 kcal/mol
-----------------------------------------------------------------------
Total correction                          0.16406015 Eh     102.95 kcal/mol


--------
ENTHALPY
--------

The enthalpy is H = U + kB*T
                kB is Boltzmann's constant
Total free energy                 ...  -2155.15694282 Eh 
Thermal Enthalpy correction       ...      0.00094421 Eh       0.59 kcal/mol
-----------------------------------------------------------------------
Total Enthalpy                    ...  -2155.15599861 Eh


Note: Only C1 symmetry has been detected, increase convergence thresholds 
      if your molecule has a higher symmetry. Symmetry factor of 1.0 is   
      used for the rotational entropy correction. 
 

Note: Rotational entropy computed according to Herzberg 
Infrared and Raman Spectra, Chapter V,1, Van Nostrand Reinhold, 1945 
Point Group:  C1, Symmetry Number:   1  
Rotational constants in cm-1:     0.059493     0.011186     0.010023 

Vibrational entropy computed according to the QRRHO of S. Grimme
Chem.Eur.J. 2012 18 9955


-------
ENTROPY
-------

The entropy contributions are T*S = T*(S(el)+S(vib)+S(rot)+S(trans))
     S(el)   - electronic entropy
     S(vib)  - vibrational entropy
     S(rot)  - rotational entropy
     S(trans)- translational entropy
The entropies will be listed as multiplied by the temperature to get
units of energy

Electronic entropy                ...      0.00065446 Eh      0.41 kcal/mol
Vibrational entropy               ...      0.01653119 Eh     10.37 kcal/mol
Rotational entropy                ...      0.01513713 Eh      9.50 kcal/mol
Translational entropy             ...      0.01995347 Eh     12.52 kcal/mol
-----------------------------------------------------------------------
Final entropy term                ...      0.05227625 Eh     32.80 kcal/mol

In case the symmetry of your molecule has not been determined correctly
or in case you have a reason to use a different symmetry number we print 
out the resulting rotational entropy values for sn=1,12 :
 --------------------------------------------------------
|  sn= 1 | S(rot)=       0.01513713 Eh      9.50 kcal/mol|
|  sn= 2 | S(rot)=       0.01448267 Eh      9.09 kcal/mol|
|  sn= 3 | S(rot)=       0.01409984 Eh      8.85 kcal/mol|
|  sn= 4 | S(rot)=       0.01382821 Eh      8.68 kcal/mol|
|  sn= 5 | S(rot)=       0.01361753 Eh      8.55 kcal/mol|
|  sn= 6 | S(rot)=       0.01344538 Eh      8.44 kcal/mol|
|  sn= 7 | S(rot)=       0.01329984 Eh      8.35 kcal/mol|
|  sn= 8 | S(rot)=       0.01317376 Eh      8.27 kcal/mol|
|  sn= 9 | S(rot)=       0.01306255 Eh      8.20 kcal/mol|
|  sn=10 | S(rot)=       0.01296307 Eh      8.13 kcal/mol|
|  sn=11 | S(rot)=       0.01287308 Eh      8.08 kcal/mol|
|  sn=12 | S(rot)=       0.01279093 Eh      8.03 kcal/mol|
 --------------------------------------------------------


-------------------
GIBBS FREE ENERGY
-------------------

The Gibbs free energy is G = H - T*S

Total enthalpy                    ...  -2155.15599861 Eh 
Total entropy correction          ...     -0.05227625 Eh    -32.80 kcal/mol
-----------------------------------------------------------------------
Final Gibbs free energy         ...  -2155.20827486 Eh

For completeness - the Gibbs free energy minus the electronic energy
G-E(el)                           ...      0.11272811 Eh     70.74 kcal/mol



Timings for individual modules:

Sum of individual times         ...     8295.835 sec (= 138.264 min)
GTO integral calculation        ...       18.368 sec (=   0.306 min)   0.2 %
SCF iterations                  ...     1020.854 sec (=  17.014 min)  12.3 %
SCF Gradient evaluation         ...      351.253 sec (=   5.854 min)   4.2 %
Geometry relaxation             ...        0.724 sec (=   0.012 min)   0.0 %
Numerical frequency calculation ...     6904.636 sec (= 115.077 min)  83.2 %
                             ****ORCA TERMINATED NORMALLY****
TOTAL RUN TIME: 0 days 2 hours 17 minutes 48 seconds 228 msec
