
                                 *****************
                                 * O   R   C   A *
                                 *****************

                                            #,                                       
                                            ###                                      
                                            ####                                     
                                            #####                                    
                                            ######                                   
                                           ########,                                 
                                     ,,################,,,,,                         
                               ,,#################################,,                 
                          ,,##########################################,,             
                       ,#########################################, ''#####,          
                    ,#############################################,,   '####,        
                  ,##################################################,,,,####,       
                ,###########''''           ''''###############################       
              ,#####''   ,,,,##########,,,,          '''####'''          '####       
            ,##' ,,,,###########################,,,                        '##       
           ' ,,###''''                  '''############,,,                           
         ,,##''                                '''############,,,,        ,,,,,,###''
      ,#''                                            '''#######################'''  
     '                                                          ''''####''''         
             ,#######,   #######,   ,#######,      ##                                
            ,#'     '#,  ##    ##  ,#'     '#,    #''#        ######   ,####,        
            ##       ##  ##   ,#'  ##            #'  '#       #        #'  '#        
            ##       ##  #######   ##           ,######,      #####,   #    #        
            '#,     ,#'  ##    ##  '#,     ,#' ,#      #,         ##   #,  ,#        
             '#######'   ##     ##  '#######'  #'      '#     #####' # '####'        



                  #######################################################
                  #                        -***-                        #
                  #          Department of theory and spectroscopy      #
                  #    Directorship and core code : Frank Neese         #
                  #        Max Planck Institute fuer Kohlenforschung    #
                  #                Kaiser Wilhelm Platz 1               #
                  #                 D-45470 Muelheim/Ruhr               #
                  #                      Germany                        #
                  #                                                     #
                  #                  All rights reserved                #
                  #                        -***-                        #
                  #######################################################


                         Program Version 5.0.1 -  RELEASE  -


 With contributions from (in alphabetic order):
   Daniel Aravena         : Magnetic Suceptibility
   Michael Atanasov       : Ab Initio Ligand Field Theory (pilot matlab implementation)
   Alexander A. Auer      : GIAO ZORA, VPT2 properties, NMR spectrum
   Ute Becker             : Parallelization
   Giovanni Bistoni       : ED, misc. LED, open-shell LED, HFLD
   Martin Brehm           : Molecular dynamics
   Dmytro Bykov           : SCF Hessian
   Vijay G. Chilkuri      : MRCI spin determinant printing, contributions to CSF-ICE
   Dipayan Datta          : RHF DLPNO-CCSD density
   Achintya Kumar Dutta   : EOM-CC, STEOM-CC
   Dmitry Ganyushin       : Spin-Orbit,Spin-Spin,Magnetic field MRCI
   Miquel Garcia          : C-PCM and meta-GGA Hessian, CC/C-PCM, Gaussian charge scheme
   Yang Guo               : DLPNO-NEVPT2, F12-NEVPT2, CIM, IAO-localization
   Andreas Hansen         : Spin unrestricted coupled pair/coupled cluster methods
   Benjamin Helmich-Paris : MC-RPA, TRAH-SCF, COSX integrals
   Lee Huntington         : MR-EOM, pCC
   Robert Izsak           : Overlap fitted RIJCOSX, COSX-SCS-MP3, EOM
   Marcus Kettner         : VPT2
   Christian Kollmar      : KDIIS, OOCD, Brueckner-CCSD(T), CCSD density, CASPT2, CASPT2-K
   Simone Kossmann        : Meta GGA functionals, TD-DFT gradient, OOMP2, MP2 Hessian
   Martin Krupicka        : Initial AUTO-CI
   Lucas Lang             : DCDCAS
   Marvin Lechner         : AUTO-CI (C++ implementation), FIC-MRCC
   Dagmar Lenk            : GEPOL surface, SMD
   Dimitrios Liakos       : Extrapolation schemes; Compound Job, initial MDCI parallelization
   Dimitrios Manganas     : Further ROCIS development; embedding schemes
   Dimitrios Pantazis     : SARC Basis sets
   Anastasios Papadopoulos: AUTO-CI, single reference methods and gradients
   Taras Petrenko         : DFT Hessian,TD-DFT gradient, ASA, ECA, R-Raman, ABS, FL, XAS/XES, NRVS
   Peter Pinski           : DLPNO-MP2, DLPNO-MP2 Gradient
   Christoph Reimann      : Effective Core Potentials
   Marius Retegan         : Local ZFS, SOC
   Christoph Riplinger    : Optimizer, TS searches, QM/MM, DLPNO-CCSD(T), (RO)-DLPNO pert. Triples
   Tobias Risthaus        : Range-separated hybrids, TD-DFT gradient, RPA, STAB
   Michael Roemelt        : Original ROCIS implementation
   Masaaki Saitow         : Open-shell DLPNO-CCSD energy and density
   Barbara Sandhoefer     : DKH picture change effects
   Avijit Sen             : IP-ROCIS
   Kantharuban Sivalingam : CASSCF convergence, NEVPT2, FIC-MRCI
   Bernardo de Souza      : ESD, SOC TD-DFT
   Georgi Stoychev        : AutoAux, RI-MP2 NMR, DLPNO-MP2 response
   Willem Van den Heuvel  : Paramagnetic NMR
   Boris Wezisla          : Elementary symmetry handling
   Frank Wennmohs         : Technical directorship


 We gratefully acknowledge several colleagues who have allowed us to
 interface, adapt or use parts of their codes:
   Stefan Grimme, W. Hujo, H. Kruse, P. Pracht,  : VdW corrections, initial TS optimization,
                  C. Bannwarth, S. Ehlert          DFT functionals, gCP, sTDA/sTD-DF
   Ed Valeev, F. Pavosevic, A. Kumar             : LibInt (2-el integral package), F12 methods
   Garnet Chan, S. Sharma, J. Yang, R. Olivares  : DMRG
   Ulf Ekstrom                                   : XCFun DFT Library
   Mihaly Kallay                                 : mrcc  (arbitrary order and MRCC methods)
   Jiri Pittner, Ondrej Demel                    : Mk-CCSD
   Frank Weinhold                                : gennbo (NPA and NBO analysis)
   Christopher J. Cramer and Donald G. Truhlar   : smd solvation model
   Lars Goerigk                                  : TD-DFT with DH, B97 family of functionals
   V. Asgeirsson, H. Jonsson                     : NEB implementation
   FAccTs GmbH                                   : IRC, NEB, NEB-TS, DLPNO-Multilevel, CI-OPT
                                                   MM, QMMM, 2- and 3-layer-ONIOM, Crystal-QMMM,
                                                   LR-CPCM, SF, NACMEs, symmetry and pop. for TD-DFT,
                                                   nearIR, NL-DFT gradient (VV10), updates on ESD,
                                                   ML-optimized integration grids
   S Lehtola, MJT Oliveira, MAL Marques          : LibXC Library
   Liviu Ungur et al                             : ANISO software


 Your calculation uses the libint2 library for the computation of 2-el integrals
 For citations please refer to: http://libint.valeyev.net

 Your ORCA version has been built with support for libXC version: 5.1.0
 For citations please refer to: https://tddft.org/programs/libxc/

 This ORCA versions uses:
   CBLAS   interface :  Fast vector & matrix operations
   LAPACKE interface :  Fast linear algebra routines
   SCALAPACK package :  Parallel linear algebra routines
   Shared memory     :  Shared parallel matrices
   BLAS/LAPACK       :  OpenBLAS 0.3.15  USE64BITINT DYNAMIC_ARCH NO_AFFINITY Haswell SINGLE_THREADED
        Core in use  :  Haswell
   Copyright (c) 2011-2014, The OpenBLAS Project


Your calculation utilizes the atom-pairwise dispersion correction
with the Becke-Johnson damping scheme (D3BJ)
Cite in your paper:
S.Grimme, S.Ehrlich, L.Goerigk, J Comput Chem, (2011), 32, 1456–1465 
S.Grimme, J.Antony, S.Ehrlich and H.Krieg, J.Chem.Phys., 132, (2010), 154104 
   

================================================================================

----- Orbital basis set information -----
Your calculation utilizes the basis: def2-TZVP
   F. Weigend and R. Ahlrichs, Phys. Chem. Chem. Phys. 7, 3297 (2005).

----- AuxJ basis set information -----
Your calculation utilizes the auxiliary basis: def2/J
   F. Weigend, Phys. Chem. Chem. Phys. 8, 1057 (2006).

================================================================================
                                        WARNINGS
                       Please study these warnings very carefully!
================================================================================


WARNING: your system is open-shell and RHF/RKS was chosen
  ===> : WILL SWITCH to UHF/UKS


WARNING: The environment variable RSH_COMMAND is not set!
  ===> : All Displacements for the Numerical Hessian calculation
         will be started on localhost

WARNING: Geometry Optimization
  ===> : Switching off AutoStart
         For restart on a previous wavefunction, please use MOREAD

INFO   : the flag for use of the SHARK integral package has been found!

================================================================================
                                       INPUT FILE
================================================================================
NAME = ex.inp
|  1> ! PBE D3 def2-TZVP opt numfreq 
|  2> %base "5_zwitterion"
|  3> %pal nprocs=2 end
|  4> %geom maxiter=75 end
|  5> *xyz 0 2
|  6> O      2.73505   -2.10741    0.20340
|  7> C      1.96090   -1.01083   -0.06068
|  8> C      0.67426   -1.11664   -0.55996
|  9> C     -0.10629    0.02665   -0.87653
| 10> C     -1.59079   -0.09092   -1.04140
| 11> C     -2.22313   -0.30878    0.36307
| 12> N     -1.51901    0.62288    1.31690
| 13> H     -1.30920    0.20045    2.22537
| 14> H     -0.57472    0.85780    0.78047
| 15> H     -2.03295    1.49672    1.46742
| 16> C      0.48330    1.29252   -0.63537
| 17> C      1.77356    1.41768   -0.11556
| 18> C      2.59717    0.28597    0.24451
| 19> O      3.73892    0.36553    0.74988
| 20> H      2.24778   -2.89566   -0.09671
| 21> H      0.24826   -2.11589   -0.72898
| 22> H     -2.01031    0.82093   -1.49692
| 23> H     -1.89487   -0.94154   -1.67070
| 24> H     -3.30535   -0.12360    0.41208
| 25> H     -2.01269   -1.32725    0.70894
| 26> H     -0.07431    2.19454   -0.92022
| 27> H      2.22018    2.40436    0.02256
| 28> Cu     5.38696   -1.58013    1.28796
| 29> **                         ****END OF INPUT****
================================================================================

                       *****************************
                       * Geometry Optimization Run *
                       *****************************

Geometry optimization settings:
Update method            Update   .... BFGS
Choice of coordinates    CoordSys .... Z-matrix Internals
Initial Hessian          InHess   .... Almoef's Model

Convergence Tolerances:
Energy Change            TolE     ....  5.0000e-06 Eh
Max. Gradient            TolMAXG  ....  3.0000e-04 Eh/bohr
RMS Gradient             TolRMSG  ....  1.0000e-04 Eh/bohr
Max. Displacement        TolMAXD  ....  4.0000e-03 bohr
RMS Displacement         TolRMSD  ....  2.0000e-03 bohr
Strict Convergence                ....  False
------------------------------------------------------------------------------
                        ORCA OPTIMIZATION COORDINATE SETUP
------------------------------------------------------------------------------

The optimization will be done in new redundant internal coordinates
Making redundant internal coordinates   ...  (new redundants) done
Evaluating the initial hessian          ...  (Almloef) done
Evaluating the coordinates              ...  done
Calculating the B-matrix                .... done
Calculating the G-matrix                .... done
Diagonalizing the G-matrix              .... done
Small eigenvalue found = 1.145e-02
Small eigenvalue found = 2.195e-02
The first mode is                       ....   50
The number of degrees of freedom        ....   63

    -----------------------------------------------------------------
                    Redundant Internal Coordinates


    -----------------------------------------------------------------
         Definition                    Initial Value    Approx d2E/dq
    -----------------------------------------------------------------
      1. B(C   1,O   0)                  1.3680         0.606612   
      2. B(C   2,C   1)                  1.3842         0.638329   
      3. B(C   3,C   2)                  1.4201         0.559462   
      4. B(C   4,C   3)                  1.4982         0.419795   
      5. B(C   5,C   4)                  1.5556         0.340059   
      6. B(N   6,C   5)                  1.5078         0.362975   
      7. B(H   7,N   6)                  1.0236         0.411600   
      8. B(H   8,N   6)                  1.1111         0.298425   
      9. B(H   9,N   6)                  1.0249         0.409684   
     10. B(C  10,C   3)                  1.4171         0.565569   
     11. B(C  11,C  10)                  1.3967         0.609712   
     12. B(C  12,C  11)                  1.4453         0.510022   
     13. B(C  12,C   1)                  1.4764         0.454925   
     14. B(O  13,C  12)                  1.2511         0.932044   
     15. B(H  14,O   0)                  0.9741         0.493741   
     16. B(H  15,C   2)                  1.0993         0.347956   
     17. B(H  16,C   4)                  1.1023         0.344248   
     18. B(H  17,C   4)                  1.1009         0.345933   
     19. B(H  18,C   5)                  1.0990         0.348335   
     20. B(H  19,C   5)                  1.0960         0.352264   
     21. B(H  20,C  10)                  1.0980         0.349610   
     22. B(H  21,C  11)                  1.0918         0.357693   
     23. B(Cu 22,O  13)                  2.6060         0.065009   
     24. A(C   1,O   0,H  14)          107.8245         0.365474   
     25. A(O   0,C   1,C   2)          122.3009         0.431793   
     26. A(O   0,C   1,C  12)          114.8531         0.406495   
     27. A(C   2,C   1,C  12)          122.8412         0.412843   
     28. A(C   3,C   2,H  15)          118.9815         0.344848   
     29. A(C   1,C   2,H  15)          119.0219         0.352600   
     30. A(C   1,C   2,C   3)          121.9917         0.428365   
     31. A(C   2,C   3,C  10)          116.9074         0.419195   
     32. A(C   2,C   3,C   4)          120.3956         0.397654   
     33. A(C   4,C   3,C  10)          120.0699         0.398413   
     34. A(C   3,C   4,H  17)          113.4033         0.328429   
     35. A(C   5,C   4,H  16)          109.5276         0.317030   
     36. A(C   3,C   4,H  16)          110.9571         0.328165   
     37. A(H  16,C   4,H  17)          107.3270         0.286986   
     38. A(C   5,C   4,H  17)          107.1933         0.317282   
     39. A(C   3,C   4,C   5)          108.3248         0.364761   
     40. A(N   6,C   5,H  18)          109.1177         0.319130   
     41. A(C   4,C   5,H  18)          114.6414         0.317640   
     42. A(C   4,C   5,N   6)          107.1439         0.353636   
     43. A(C   4,C   5,H  19)          109.6951         0.318221   
     44. A(H  18,C   5,H  19)          109.3642         0.288332   
     45. A(N   6,C   5,H  19)          106.5519         0.319715   
     46. A(C   5,N   6,H   8)          102.8319         0.308625   
     47. A(C   5,N   6,H   7)          113.7127         0.325204   
     48. A(H   8,N   6,H   9)          108.4696         0.283553   
     49. A(H   7,N   6,H   9)          108.9234         0.298240   
     50. A(C   5,N   6,H   9)          112.6781         0.324955   
     51. A(H   7,N   6,H   8)          109.9700         0.283759   
     52. A(C   3,C  10,C  11)          121.8532         0.425686   
     53. A(C  11,C  10,H  20)          119.4767         0.350158   
     54. A(C   3,C  10,H  20)          118.5796         0.345753   
     55. A(C  12,C  11,H  21)          116.2964         0.341116   
     56. A(C  10,C  11,H  21)          120.3954         0.351512   
     57. A(C  10,C  11,C  12)          123.2995         0.417900   
     58. A(C  11,C  12,O  13)          124.8126         0.448080   
     59. A(C   1,C  12,O  13)          122.1845         0.438908   
     60. A(C   1,C  12,C  11)          112.9988         0.396806   
     61. A(C  12,O  13,Cu 22)          127.8099         0.347656   
     62. D(C   2,C   1,O   0,H  14)      5.0546         0.026915   
     63. D(C  12,C   1,O   0,H  14)   -175.7161         0.026915   
     64. D(H  15,C   2,C   1,C  12)   -177.6955         0.028300   
     65. D(H  15,C   2,C   1,O   0)      1.4722         0.028300   
     66. D(C   3,C   2,C   1,O   0)   -177.7150         0.028300   
     67. D(C   3,C   2,C   1,C  12)      3.1174         0.028300   
     68. D(C   4,C   3,C   2,C   1)   -162.7491         0.021438   
     69. D(C  10,C   3,C   2,H  15)    179.7071         0.021438   
     70. D(C  10,C   3,C   2,C   1)     -1.1054         0.021438   
     71. D(C   4,C   3,C   2,H  15)     18.0634         0.021438   
     72. D(H  16,C   4,C   3,C  10)     31.4415         0.013031   
     73. D(H  16,C   4,C   3,C   2)   -167.4941         0.013031   
     74. D(H  17,C   4,C   3,C   2)    -46.6115         0.013031   
     75. D(C   5,C   4,C   3,C  10)    -88.8175         0.013031   
     76. D(C   5,C   4,C   3,C   2)     72.2469         0.013031   
     77. D(H  17,C   4,C   3,C  10)    152.3241         0.013031   
     78. D(H  19,C   5,C   4,H  17)     49.4949         0.009363   
     79. D(H  19,C   5,C   4,H  16)    165.6322         0.009363   
     80. D(H  18,C   5,C   4,H  17)    -73.9858         0.009363   
     81. D(H  18,C   5,C   4,H  16)     42.1515         0.009363   
     82. D(H  18,C   5,C   4,C   3)    163.2984         0.009363   
     83. D(H  19,C   5,C   4,C   3)    -73.2209         0.009363   
     84. D(N   6,C   5,C   4,H  17)    164.7772         0.009363   
     85. D(N   6,C   5,C   4,H  16)    -79.0855         0.009363   
     86. D(N   6,C   5,C   4,C   3)     42.0613         0.009363   
     87. D(H   8,N   6,C   5,H  18)   -144.4996         0.012103   
     88. D(H   8,N   6,C   5,C   4)    -19.8384         0.012103   
     89. D(H   7,N   6,C   5,H  19)    -21.3334         0.012103   
     90. D(H   7,N   6,C   5,H  18)     96.6435         0.012103   
     91. D(H   8,N   6,C   5,H  19)     97.5236         0.012103   
     92. D(H   7,N   6,C   5,C   4)   -138.6954         0.012103   
     93. D(H   9,N   6,C   5,H  19)   -145.9044         0.012103   
     94. D(H   9,N   6,C   5,H  18)    -27.9276         0.012103   
     95. D(H   9,N   6,C   5,C   4)     96.7335         0.012103   
     96. D(H  20,C  10,C   3,C   4)    -21.5302         0.021928   
     97. D(H  20,C  10,C   3,C   2)    176.7632         0.021928   
     98. D(C  11,C  10,C   3,C   4)    161.9487         0.021928   
     99. D(C  11,C  10,C   3,C   2)      0.2422         0.021928   
    100. D(H  21,C  11,C  10,H  20)      0.9889         0.025673   
    101. D(H  21,C  11,C  10,C   3)    177.4796         0.025673   
    102. D(C  12,C  11,C  10,H  20)   -177.8944         0.025673   
    103. D(C  12,C  11,C  10,C   3)     -1.4037         0.025673   
    104. D(O  13,C  12,C  11,H  21)      3.3834         0.017727   
    105. D(O  13,C  12,C  11,C  10)   -177.6910         0.017727   
    106. D(C   1,C  12,C  11,H  21)   -175.8903         0.017727   
    107. D(C   1,C  12,C  11,C  10)      3.0353         0.017727   
    108. D(O  13,C  12,C   1,C   2)    176.8200         0.014102   
    109. D(O  13,C  12,C   1,O   0)     -2.4047         0.014102   
    110. D(C  11,C  12,C   1,C   2)     -3.8846         0.014102   
    111. D(C  11,C  12,C   1,O   0)    176.8907         0.014102   
    112. D(Cu 22,O  13,C  12,C  11)   -175.3217         0.069692   
    113. D(Cu 22,O  13,C  12,C   1)      3.8883         0.069692   
    -----------------------------------------------------------------

Number of atoms                         .... 23
Number of degrees of freedom            .... 113

         *************************************************************
         *                GEOMETRY OPTIMIZATION CYCLE   1            *
         *************************************************************
---------------------------------
CARTESIAN COORDINATES (ANGSTROEM)
---------------------------------
  O      2.735050   -2.107410    0.203400
  C      1.960900   -1.010830   -0.060680
  C      0.674260   -1.116640   -0.559960
  C     -0.106290    0.026650   -0.876530
  C     -1.590790   -0.090920   -1.041400
  C     -2.223130   -0.308780    0.363070
  N     -1.519010    0.622880    1.316900
  H     -1.309200    0.200450    2.225370
  H     -0.574720    0.857800    0.780470
  H     -2.032950    1.496720    1.467420
  C      0.483300    1.292520   -0.635370
  C      1.773560    1.417680   -0.115560
  C      2.597170    0.285970    0.244510
  O      3.738920    0.365530    0.749880
  H      2.247780   -2.895660   -0.096710
  H      0.248260   -2.115890   -0.728980
  H     -2.010310    0.820930   -1.496920
  H     -1.894870   -0.941540   -1.670700
  H     -3.305350   -0.123600    0.412080
  H     -2.012690   -1.327250    0.708940
  H     -0.074310    2.194540   -0.920220
  H      2.220180    2.404360    0.022560
  Cu     5.386960   -1.580130    1.287960

----------------------------
CARTESIAN COORDINATES (A.U.)
----------------------------
  NO LB      ZA    FRAG     MASS         X           Y           Z
   0 O     8.0000    0    15.999    5.168495   -3.982428    0.384370
   1 C     6.0000    0    12.011    3.705564   -1.910192   -0.114669
   2 C     6.0000    0    12.011    1.274167   -2.110144   -1.058171
   3 C     6.0000    0    12.011   -0.200859    0.050361   -1.656402
   4 C     6.0000    0    12.011   -3.006157   -0.171814   -1.967961
   5 C     6.0000    0    12.011   -4.201107   -0.583510    0.686103
   6 N     7.0000    0    14.007   -2.870513    1.177073    2.488580
   7 H     1.0000    0     1.008   -2.474029    0.378796    4.205340
   8 H     1.0000    0     1.008   -1.086063    1.621007    1.474875
   9 H     1.0000    0     1.008   -3.841719    2.828391    2.773022
  10 C     6.0000    0    12.011    0.913305    2.442509   -1.200675
  11 C     6.0000    0    12.011    3.351543    2.679027   -0.218377
  12 C     6.0000    0    12.011    4.907940    0.540405    0.462057
  13 O     8.0000    0    15.999    7.065535    0.690752    1.417068
  14 H     1.0000    0     1.008    4.247689   -5.472004   -0.182755
  15 H     1.0000    0     1.008    0.469143   -3.998453   -1.377573
  16 H     1.0000    0     1.008   -3.798935    1.551333   -2.828769
  17 H     1.0000    0     1.008   -3.580785   -1.779253   -3.157165
  18 H     1.0000    0     1.008   -6.246206   -0.233570    0.778718
  19 H     1.0000    0     1.008   -3.803433   -2.508139    1.339702
  20 H     1.0000    0     1.008   -0.140426    4.147080   -1.738964
  21 H     1.0000    0     1.008    4.195532    4.543582    0.042632
  22 Cu   29.0000    0    63.550   10.179879   -2.986013    2.433892

--------------------------------
INTERNAL COORDINATES (ANGSTROEM)
--------------------------------
 O      0   0   0     0.000000000000     0.00000000     0.00000000
 C      1   0   0     1.368040264502     0.00000000     0.00000000
 C      2   1   0     1.384167173466   122.30090887     0.00000000
 C      3   2   1     1.420065805341   121.99170336   182.28500201
 C      4   3   2     1.498247333320   120.39564043   197.25089517
 C      5   4   3     1.555587617622   108.32484552    72.24688819
 N      6   5   4     1.507835202832   107.14393347    42.06132706
 H      7   6   5     1.023613736670   113.71271496   221.30457077
 H      7   6   5     1.111138225155   102.83194012   340.16155347
 H      7   6   5     1.024883866397   112.67808358    96.73353461
 C      4   3   2     1.417110218226   116.90744024   358.89458032
 C     11   4   3     1.396652544229   121.85320509     0.24216109
 C     12  11   4     1.445251314167   123.29945657   358.59627547
 O     13  12  11     1.251128168095   124.81255133   182.30901669
 H      1   2   3     0.974082197507   107.82445437     5.05457400
 H      3   2   1     1.099338129467   119.02189047     1.47217079
 H      5   4   3     1.102254926639   110.95711639   192.50594787
 H      5   4   3     1.100925756262   113.40331753   313.38847822
 H      6   5   4     1.099042192502   114.64142187   163.29837347
 H      6   5   4     1.095989138359   109.69508025   286.77909602
 H     11   4   3     1.098047592320   118.57960941   176.76322914
 H     12  11   4     1.091825984853   120.39535115   177.47958821
 Cu    14  13  12     2.605985181002   127.80994501   184.67831684

---------------------------
INTERNAL COORDINATES (A.U.)
---------------------------
 O      0   0   0     0.000000000000     0.00000000     0.00000000
 C      1   0   0     2.585221440087     0.00000000     0.00000000
 C      2   1   0     2.615696881414   122.30090887     0.00000000
 C      3   2   1     2.683535464242   121.99170336   182.28500201
 C      4   3   2     2.831277140852   120.39564043   197.25089517
 C      5   4   3     2.939634574625   108.32484552    72.24688819
 N      6   5   4     2.849395588438   107.14393347    42.06132706
 H      7   6   5     1.934349629227   113.71271496   221.30457077
 H      7   6   5     2.099746942474   102.83194012   340.16155347
 H      7   6   5     1.936749826564   112.67808358    96.73353461
 C      4   3   2     2.677950214028   116.90744024   358.89458032
 C     11   4   3     2.639290812836   121.85320509     0.24216109
 C     12  11   4     2.731129178464   123.29945657   358.59627547
 O     13  12  11     2.364289596134   124.81255133   182.30901669
 H      1   2   3     1.840748585216   107.82445437     5.05457400
 H      3   2   1     2.077447993270   119.02189047     1.47217079
 H      5   4   3     2.082959941113   110.95711639   192.50594787
 H      5   4   3     2.080448173114   113.40331753   313.38847822
 H      6   5   4     2.076888753453   114.64142187   163.29837347
 H      6   5   4     2.071119317250   109.69508025   286.77909602
 H     11   4   3     2.075009231497   118.57960941   176.76322914
 H     12  11   4     2.063252097271   120.39535115   177.47958821
 Cu    14  13  12     4.924598301150   127.80994501   184.67831684

---------------------
BASIS SET INFORMATION
---------------------
There are 5 groups of distinct atoms

 Group   1 Type O   : 11s6p2d1f contracted to 5s3p2d1f pattern {62111/411/11/1}
 Group   2 Type C   : 11s6p2d1f contracted to 5s3p2d1f pattern {62111/411/11/1}
 Group   3 Type N   : 11s6p2d1f contracted to 5s3p2d1f pattern {62111/411/11/1}
 Group   4 Type H   : 5s1p contracted to 3s1p pattern {311/1}
 Group   5 Type Cu  : 17s11p7d1f contracted to 6s4p4d1f pattern {842111/6311/4111/1}

Atom   0O    basis set group =>   1
Atom   1C    basis set group =>   2
Atom   2C    basis set group =>   2
Atom   3C    basis set group =>   2
Atom   4C    basis set group =>   2
Atom   5C    basis set group =>   2
Atom   6N    basis set group =>   3
Atom   7H    basis set group =>   4
Atom   8H    basis set group =>   4
Atom   9H    basis set group =>   4
Atom  10C    basis set group =>   2
Atom  11C    basis set group =>   2
Atom  12C    basis set group =>   2
Atom  13O    basis set group =>   1
Atom  14H    basis set group =>   4
Atom  15H    basis set group =>   4
Atom  16H    basis set group =>   4
Atom  17H    basis set group =>   4
Atom  18H    basis set group =>   4
Atom  19H    basis set group =>   4
Atom  20H    basis set group =>   4
Atom  21H    basis set group =>   4
Atom  22Cu   basis set group =>   5
---------------------------------
AUXILIARY/J BASIS SET INFORMATION
---------------------------------
There are 5 groups of distinct atoms

 Group   1 Type O   : 12s5p4d2f1g contracted to 6s4p3d1f1g pattern {711111/2111/211/2/1}
 Group   2 Type C   : 12s5p4d2f1g contracted to 6s4p3d1f1g pattern {711111/2111/211/2/1}
 Group   3 Type N   : 12s5p4d2f1g contracted to 6s4p3d1f1g pattern {711111/2111/211/2/1}
 Group   4 Type H   : 5s2p1d contracted to 3s1p1d pattern {311/2/1}
 Group   5 Type Cu  : 19s5p5d3f3g contracted to 8s5p4d3f3g pattern {121111111/11111/2111/111/111}

Atom   0O    basis set group =>   1
Atom   1C    basis set group =>   2
Atom   2C    basis set group =>   2
Atom   3C    basis set group =>   2
Atom   4C    basis set group =>   2
Atom   5C    basis set group =>   2
Atom   6N    basis set group =>   3
Atom   7H    basis set group =>   4
Atom   8H    basis set group =>   4
Atom   9H    basis set group =>   4
Atom  10C    basis set group =>   2
Atom  11C    basis set group =>   2
Atom  12C    basis set group =>   2
Atom  13O    basis set group =>   1
Atom  14H    basis set group =>   4
Atom  15H    basis set group =>   4
Atom  16H    basis set group =>   4
Atom  17H    basis set group =>   4
Atom  18H    basis set group =>   4
Atom  19H    basis set group =>   4
Atom  20H    basis set group =>   4
Atom  21H    basis set group =>   4
Atom  22Cu   basis set group =>   5


           ************************************************************
           *        Program running with 2 parallel MPI-processes     *
           *              working on a common directory               *
           ************************************************************
------------------------------------------------------------------------------
                           ORCA GTO INTEGRAL CALCULATION
                           -- RI-GTO INTEGRALS CHOSEN --
------------------------------------------------------------------------------
------------------------------------------------------------------------------
                   ___                                                        
                  /   \      - P O W E R E D   B Y -                         
                 /     \                                                     
                 |  |  |   _    _      __       _____    __    __             
                 |  |  |  | |  | |    /  \     |  _  \  |  |  /  |          
                  \  \/   | |  | |   /    \    | | | |  |  | /  /          
                 / \  \   | |__| |  /  /\  \   | |_| |  |  |/  /          
                |  |  |   |  __  | /  /__\  \  |    /   |      \           
                |  |  |   | |  | | |   __   |  |    \   |  |\   \          
                \     /   | |  | | |  |  |  |  | |\  \  |  | \   \       
                 \___/    |_|  |_| |__|  |__|  |_| \__\ |__|  \__/        
                                                                              
                      - O R C A' S   B I G   F R I E N D -                    
                                      &                                       
                       - I N T E G R A L  F E E D E R -                       
                                                                              
 v1 FN, 2020, v2 2021                                                         
------------------------------------------------------------------------------


Reading SHARK input file 5_zwitterion.SHARKINP.tmp ... ok
----------------------
SHARK INTEGRAL PACKAGE
----------------------

Number of atoms                             ...     23
Number of basis functions                   ...    452
Number of shells                            ...    180
Maximum angular momentum                    ...      3
Integral batch strategy                     ... SHARK/LIBINT Hybrid
RI-J (if used) integral strategy            ... SPLIT-RIJ (Revised 2003 algorithm where possible)
Printlevel                                  ...      1
Contraction scheme used                     ... SEGMENTED contraction
Coulomb Range Separation                    ... NOT USED
Exchange Range Separation                   ... NOT USED
Finite Nucleus Model                        ... NOT USED
Auxiliary Coulomb fitting basis             ... AVAILABLE
   # of basis functions in Aux-J            ...    751
   # of shells in Aux-J                     ...    243
   Maximum angular momentum in Aux-J        ...      4
Auxiliary J/K fitting basis                 ... NOT available
Auxiliary Correlation fitting basis         ... NOT available
Auxiliary 'external' fitting basis          ... NOT available
Integral threshold                          ...     2.500000e-11
Primitive cut-off                           ...     2.500000e-12
Primitive pair pre-selection threshold      ...     2.500000e-12

Calculating pre-screening integrals         ... done (  0.4 sec) Dimension = 180
Organizing shell pair data                  ... done (  0.3 sec)
Shell pair information
Total number of shell pairs                 ...     16290
Shell pairs after pre-screening             ...     13503
Total number of primitive shell pairs       ...     52337
Primitive shell pairs kept                  ...     29905
          la=0 lb=0:   3622 shell pairs
          la=1 lb=0:   3797 shell pairs
          la=1 lb=1:   1026 shell pairs
          la=2 lb=0:   1998 shell pairs
          la=2 lb=1:   1065 shell pairs
          la=2 lb=2:    295 shell pairs
          la=3 lb=0:    895 shell pairs
          la=3 lb=1:    484 shell pairs
          la=3 lb=2:    256 shell pairs
          la=3 lb=3:     65 shell pairs

Calculating one electron integrals          ... done (  0.2 sec)
Calculating RI/J V-Matrix + Cholesky decomp.... done (  0.1 sec)
Calculating Nuclear repulsion               ... done (  0.0 sec) ENN=    886.537375065702 Eh

SHARK setup successfully completed in   1.0 seconds

Maximum memory used throughout the entire GTOINT-calculation: 27.0 MB


           ************************************************************
           *        Program running with 2 parallel MPI-processes     *
           *              working on a common directory               *
           ************************************************************
-------------------------------------------------------------------------------
                                 ORCA SCF
-------------------------------------------------------------------------------

------------
SCF SETTINGS
------------
Hamiltonian:
 Density Functional     Method          .... DFT(GTOs)
 Exchange Functional    Exchange        .... PBE
   PBE kappa parameter   XKappa         ....  0.804000
   PBE mue parameter    XMuePBE         ....  0.219520
 Correlation Functional Correlation     .... PBE
   PBE beta parameter  CBetaPBE         ....  0.066725
 LDA part of GGA corr.  LDAOpt          .... PW91-LDA
 Gradients option       PostSCFGGA      .... off
   Density functional embedding theory  .... OFF
   NL short-range parameter             ....  6.400000
 RI-approximation to the Coulomb term is turned on
   Number of AuxJ basis functions       .... 751


General Settings:
 Integral files         IntName         .... 5_zwitterion
 Hartree-Fock type      HFTyp           .... UHF
 Total Charge           Charge          ....    0
 Multiplicity           Mult            ....    2
 Number of Electrons    NEL             ....  111
 Basis Dimension        Dim             ....  452
 Nuclear Repulsion      ENuc            ....    886.5373750657 Eh

Convergence Acceleration:
 DIIS                   CNVDIIS         .... on
   Start iteration      DIISMaxIt       ....    12
   Startup error        DIISStart       ....  0.200000
   # of expansion vecs  DIISMaxEq       ....     5
   Bias factor          DIISBfac        ....   1.050
   Max. coefficient     DIISMaxC        ....  10.000
 Trust-Rad. Augm. Hess. CNVTRAH         .... auto
   Auto Start mean grad. ratio tolernc. ....  1.125000
   Auto Start start iteration           ....    20
   Auto Start num. interpolation iter.  ....    10
   Max. Number of Micro iterations      ....    16
   Max. Number of Macro iterations      .... Maxiter - #DIIS iter
   Number of Davidson start vectors     ....     2
   Converg. threshold I  (grad. norm)   ....   1.000e-05
   Converg. threshold II (energy diff.) ....   1.000e-08
   Grad. Scal. Fac. for Micro threshold ....   0.100
   Minimum threshold for Micro iter.    ....   0.010
   NR start threshold (gradient norm)   ....   0.001
   Initial trust radius                 ....   0.400
   Minimum AH scaling param. (alpha)    ....   1.000
   Maximum AH scaling param. (alpha)    .... 1000.000
   Orbital update algorithm             .... Taylor
   White noise on init. David. guess    .... on
   Maximum white noise                  ....   0.010
   Quad. conv. algorithm                .... NR
 SOSCF                  CNVSOSCF        .... off
 Level Shifting         CNVShift        .... on
   Level shift para.    LevelShift      ....    0.2500
   Turn off err/grad.   ShiftErr        ....    0.0010
 Zerner damping         CNVZerner       .... off
 Static damping         CNVDamp         .... on
   Fraction old density DampFac         ....    0.7000
   Max. Damping (<1)    DampMax         ....    0.9800
   Min. Damping (>=0)   DampMin         ....    0.0000
   Turn off err/grad.   DampErr         ....    0.1000
 Fernandez-Rico         CNVRico         .... off

SCF Procedure:
 Maximum # iterations   MaxIter         ....   125
 SCF integral mode      SCFMode         .... Direct
   Integral package                     .... SHARK and LIBINT hybrid scheme
 Reset frequency        DirectResetFreq ....    20
 Integral Threshold     Thresh          ....  2.500e-11 Eh
 Primitive CutOff       TCut            ....  2.500e-12 Eh

Convergence Tolerance:
 Convergence Check Mode ConvCheckMode   .... Total+1el-Energy
 Convergence forced     ConvForced      .... 0
 Energy Change          TolE            ....  1.000e-08 Eh
 1-El. energy change                    ....  1.000e-05 Eh
 DIIS Error             TolErr          ....  5.000e-07


Diagonalization of the overlap matrix:
Smallest eigenvalue                        ... 1.150e-05
Time for diagonalization                   ...    0.091 sec
Threshold for overlap eigenvalues          ... 1.000e-08
Number of eigenvalues below threshold      ... 0
Time for construction of square roots      ...    0.066 sec
Total time needed                          ...    0.158 sec

Time for model grid setup =    0.832 sec

------------------------------
INITIAL GUESS: MODEL POTENTIAL
------------------------------
Loading Hartree-Fock densities                     ... done
Calculating cut-offs                               ... done
Initializing the effective Hamiltonian             ... done
Setting up the integral package (SHARK)            ... done
Starting the Coulomb interaction                   ... done (   1.9 sec)
Reading the grid                                   ... done
Mapping shells                                     ... done
Starting the XC term evaluation                    ... done (   1.4 sec)
  promolecular density results
     # of electrons  =    110.996071061
     EX              =   -132.469920965
     EC              =     -4.088099982
     EX+EC           =   -136.558020947
Transforming the Hamiltonian                       ... done (   0.1 sec)
Diagonalizing the Hamiltonian                      ... done (   0.1 sec)
Back transforming the eigenvectors                 ... done (   0.0 sec)
Now organizing SCF variables                       ... done
                      ------------------
                      INITIAL GUESS DONE (   4.3 sec)
                      ------------------
-------------------
DFT GRID GENERATION
-------------------

General Integration Accuracy     IntAcc      ... 4.388
Radial Grid Type                 RadialGrid  ... OptM3 with GC (2021)
Angular Grid (max. ang.)         AngularGrid ... 4 (Lebedev-302)
Angular grid pruning method      GridPruning ... 4 (adaptive)
Weight generation scheme         WeightScheme... Becke
Basis function cutoff            BFCut       ... 1.0000e-11
Integration weight cutoff        WCut        ... 1.0000e-14
Angular grids for H and He will be reduced by one unit
Partially contracted basis set               ... off
Rotationally invariant grid construction     ... off

Total number of grid points                  ...   112196
Total number of batches                      ...     1764
Average number of points per batch           ...       63
Average number of grid points per atom       ...     4878
Time for grid setup =    3.075 sec

--------------
SCF ITERATIONS
--------------
ITER       Energy         Delta-E        Max-DP      RMS-DP      [F,P]     Damp
               ***  Starting incremental Fock matrix formation  ***
  0  -2156.0222132434   0.000000000000 0.64235136  0.00546577  0.3049786 0.7000
  1  -2156.1791544476  -0.156941204140 0.24723555  0.00171641  0.1691175 0.7000
                               ***Turning on DIIS***
  2  -2156.2597034637  -0.080549016088 0.31621783  0.00270913  0.0399509 0.0000
  3  -2156.3599460796  -0.100242615973 0.07895299  0.00055480  0.1984843 0.7000
  4  -2156.3837396731  -0.023793593417 0.07003982  0.00054775  0.1477479 0.7000
  5  -2156.4012229729  -0.017483299884 0.04463447  0.00041581  0.1075811 0.7000
  6  -2156.4126674863  -0.011444513335 0.11469979  0.00105004  0.0803868 0.0000
  7  -2156.4330501011  -0.020382614785 0.03565863  0.00022716  0.0074696 0.0000
  8  -2156.4337506938  -0.000700592701 0.01180811  0.00009160  0.0092020 0.0000
  9  -2156.4340279182  -0.000277224397 0.00751915  0.00007384  0.0051834 0.0000
 10  -2156.4341779117  -0.000149993510 0.00706434  0.00005572  0.0013042 0.0000
 11  -2156.4342630783  -0.000085166650 0.00621134  0.00004272  0.0010529 0.0000
 12  -2156.4343225468  -0.000059468493 0.04332039  0.00025175  0.0009441 0.0000
 13  -2156.4344838307  -0.000161283893 0.00069048  0.00000575  0.0015396 0.0000
 14  -2156.4344865399  -0.000002709201 0.00107258  0.00000976  0.0001987 0.0000
 15  -2156.4344866714  -0.000000131498 0.00105046  0.00000738  0.0003977 0.0000
 16  -2156.4344865945   0.000000076943 0.00039716  0.00000292  0.0003808 0.0000
 17  -2156.4344869978  -0.000000403378 0.00014632  0.00000102  0.0000377 0.0000
 18  -2156.4344870061  -0.000000008253 0.00017091  0.00000124  0.0000685 0.0000
 19  -2156.4344870133  -0.000000007250 0.00030972  0.00000205  0.0000050 0.0000
               *** Restarting incremental Fock matrix formation ***
                                   *** Resetting DIIS ***
 20  -2156.4344870270  -0.000000013703 0.00010952  0.00000108  0.0000071 0.0000
 21  -2156.4344870189   0.000000008132 0.00003528  0.00000036  0.0000259 0.0000
 22  -2156.4344870181   0.000000000829 0.00004718  0.00000032  0.0000053 0.0000
                            ***DIIS convergence achieved***

               *****************************************************
               *                     SUCCESS                       *
               *           SCF CONVERGED AFTER  23 CYCLES          *
               *****************************************************


----------------
TOTAL SCF ENERGY
----------------

Total Energy       :        -2156.43448701 Eh          -58679.56560 eV

Components:
Nuclear Repulsion  :          886.53737507 Eh           24123.90841 eV
Electronic Energy  :        -3042.97186207 Eh          -82803.47401 eV
One Electron Energy:        -4753.29289079 Eh         -129343.67526 eV
Two Electron Energy:         1710.32102872 Eh           46540.20125 eV

Virial components:
Potential Energy   :        -4308.08854953 Eh         -117229.04924 eV
Kinetic Energy     :         2151.65406253 Eh           58549.48364 eV
Virial Ratio       :            2.00222174


DFT components:
N(Alpha)           :       55.999830263497 electrons
N(Beta)            :       55.000036279209 electrons
N(Total)           :      110.999866542706 electrons
E(X)               :     -133.807879046995 Eh       
E(C)               :       -4.095460512394 Eh       
E(XC)              :     -137.903339559388 Eh       
DFET-embed. en.    :        0.000000000000 Eh       

---------------
SCF CONVERGENCE
---------------

  Last Energy change         ...    1.2296e-08  Tolerance :   1.0000e-08
  Last MAX-Density change    ...    6.9341e-05  Tolerance :   1.0000e-07
  Last RMS-Density change    ...    4.4526e-07  Tolerance :   5.0000e-09
  Last DIIS Error            ...    8.5341e-07  Tolerance :   5.0000e-07

             **** THE GBW FILE WAS UPDATED (5_zwitterion.gbw) ****
             **** DENSITY 5_zwitterion.scfp WAS UPDATED ****
             **** ENERGY FILE WAS UPDATED (5_zwitterion.en.tmp) ****
----------------------
UHF SPIN CONTAMINATION
----------------------

Warning: in a DFT calculation there is little theoretical justification to 
         calculate <S**2> as in Hartree-Fock theory. We will do it anyways
         but you should keep in mind that the values have only limited relevance

Expectation value of <S**2>     :     0.752877
Ideal value S*(S+1) for S=0.5   :     0.750000
Deviation                       :     0.002877

             **** THE GBW FILE WAS UPDATED (5_zwitterion.gbw) ****
             **** DENSITY 5_zwitterion.scfp WAS UPDATED ****
----------------
ORBITAL ENERGIES
----------------
                 SPIN UP ORBITALS
  NO   OCC          E(Eh)            E(eV) 
   0   1.0000    -321.408315     -8745.9649 
   1   1.0000     -38.170033     -1038.6594 
   2   1.0000     -33.461497      -910.5336 
   3   1.0000     -33.461457      -910.5325 
   4   1.0000     -33.461295      -910.5281 
   5   1.0000     -18.770209      -510.7633 
   6   1.0000     -18.670502      -508.0502 
   7   1.0000     -14.135368      -384.6429 
   8   1.0000      -9.989296      -271.8226 
   9   1.0000      -9.929308      -270.1902 
  10   1.0000      -9.925105      -270.0758 
  11   1.0000      -9.909730      -269.6575 
  12   1.0000      -9.891375      -269.1580 
  13   1.0000      -9.886643      -269.0292 
  14   1.0000      -9.881567      -268.8911 
  15   1.0000      -9.859880      -268.3010 
  16   1.0000      -4.002474      -108.9129 
  17   1.0000      -2.539420       -69.1011 
  18   1.0000      -2.538033       -69.0634 
  19   1.0000      -2.537267       -69.0426 
  20   1.0000      -0.961002       -26.1502 
  21   1.0000      -0.955446       -25.9990 
  22   1.0000      -0.876850       -23.8603 
  23   1.0000      -0.777488       -21.1565 
  24   1.0000      -0.730532       -19.8788 
  25   1.0000      -0.662287       -18.0217 
  26   1.0000      -0.654937       -17.8217 
  27   1.0000      -0.597615       -16.2619 
  28   1.0000      -0.577444       -15.7130 
  29   1.0000      -0.566137       -15.4054 
  30   1.0000      -0.543729       -14.7956 
  31   1.0000      -0.511644       -13.9225 
  32   1.0000      -0.482335       -13.1250 
  33   1.0000      -0.478964       -13.0333 
  34   1.0000      -0.432659       -11.7732 
  35   1.0000      -0.423817       -11.5327 
  36   1.0000      -0.407470       -11.0878 
  37   1.0000      -0.391646       -10.6572 
  38   1.0000      -0.370336       -10.0774 
  39   1.0000      -0.362957        -9.8766 
  40   1.0000      -0.356861        -9.7107 
  41   1.0000      -0.349806        -9.5187 
  42   1.0000      -0.328669        -8.9435 
  43   1.0000      -0.307322        -8.3627 
  44   1.0000      -0.297174        -8.0865 
  45   1.0000      -0.291902        -7.9430 
  46   1.0000      -0.270106        -7.3499 
  47   1.0000      -0.207378        -5.6430 
  48   1.0000      -0.171499        -4.6667 
  49   1.0000      -0.146312        -3.9813 
  50   1.0000      -0.117357        -3.1935 
  51   1.0000      -0.117224        -3.1898 
  52   1.0000      -0.115721        -3.1489 
  53   1.0000      -0.115436        -3.1412 
  54   1.0000      -0.113938        -3.1004 
  55   1.0000      -0.091138        -2.4800 
  56   0.0000      -0.070568        -1.9203 
  57   0.0000      -0.035523        -0.9666 
  58   0.0000      -0.026251        -0.7143 
  59   0.0000      -0.019594        -0.5332 
  60   0.0000      -0.005534        -0.1506 
  61   0.0000       0.010734         0.2921 
  62   0.0000       0.019244         0.5237 
  63   0.0000       0.036388         0.9902 
  64   0.0000       0.046055         1.2532 
  65   0.0000       0.051295         1.3958 
  66   0.0000       0.059405         1.6165 
  67   0.0000       0.063862         1.7378 
  68   0.0000       0.081160         2.2085 
  69   0.0000       0.082978         2.2580 
  70   0.0000       0.091790         2.4977 
  71   0.0000       0.100466         2.7338 
  72   0.0000       0.109632         2.9832 
  73   0.0000       0.114465         3.1148 
  74   0.0000       0.121137         3.2963 
  75   0.0000       0.122692         3.3386 
  76   0.0000       0.127450         3.4681 
  77   0.0000       0.140550         3.8246 
  78   0.0000       0.146024         3.9735 
  79   0.0000       0.166195         4.5224 
  80   0.0000       0.180054         4.8995 
  81   0.0000       0.182364         4.9624 
  82   0.0000       0.196415         5.3447 
  83   0.0000       0.200589         5.4583 
  84   0.0000       0.205639         5.5957 
  85   0.0000       0.212099         5.7715 
  86   0.0000       0.212689         5.7876 
  87   0.0000       0.216290         5.8855 
  88   0.0000       0.224447         6.1075 
  89   0.0000       0.234424         6.3790 
  90   0.0000       0.239039         6.5046 
  91   0.0000       0.243543         6.6271 
  92   0.0000       0.247344         6.7306 
  93   0.0000       0.265447         7.2232 
  94   0.0000       0.269628         7.3370 
  95   0.0000       0.272272         7.4089 
  96   0.0000       0.283077         7.7029 
  97   0.0000       0.290852         7.9145 
  98   0.0000       0.295352         8.0369 
  99   0.0000       0.308102         8.3839 
 100   0.0000       0.317707         8.6452 
 101   0.0000       0.319375         8.6906 
 102   0.0000       0.330981         9.0065 
 103   0.0000       0.335424         9.1274 
 104   0.0000       0.344218         9.3666 
 105   0.0000       0.347319         9.4510 
 106   0.0000       0.358292         9.7496 
 107   0.0000       0.360710         9.8154 
 108   0.0000       0.365862         9.9556 
 109   0.0000       0.372681        10.1412 
 110   0.0000       0.378122        10.2892 
 111   0.0000       0.384320        10.4579 
 112   0.0000       0.385416        10.4877 
 113   0.0000       0.395761        10.7692 
 114   0.0000       0.402419        10.9504 
 115   0.0000       0.404181        10.9983 
 116   0.0000       0.417588        11.3632 
 117   0.0000       0.429561        11.6890 
 118   0.0000       0.436834        11.8868 
 119   0.0000       0.461372        12.5546 
 120   0.0000       0.469569        12.7776 
 121   0.0000       0.482590        13.1319 
 122   0.0000       0.497378        13.5344 
 123   0.0000       0.498588        13.5673 
 124   0.0000       0.509487        13.8639 
 125   0.0000       0.525172        14.2907 
 126   0.0000       0.532177        14.4813 
 127   0.0000       0.538798        14.6614 
 128   0.0000       0.551769        15.0144 
 129   0.0000       0.561730        15.2854 
 130   0.0000       0.568588        15.4721 
 131   0.0000       0.576116        15.6769 
 132   0.0000       0.597800        16.2670 
 133   0.0000       0.608572        16.5601 
 134   0.0000       0.624599        16.9962 
 135   0.0000       0.633082        17.2270 
 136   0.0000       0.646325        17.5874 
 137   0.0000       0.665137        18.0993 
 138   0.0000       0.674508        18.3543 
 139   0.0000       0.688796        18.7431 
 140   0.0000       0.708503        19.2793 
 141   0.0000       0.720169        19.5968 
 142   0.0000       0.729291        19.8450 
 143   0.0000       0.747408        20.3380 
 144   0.0000       0.766197        20.8493 
 145   0.0000       0.773904        21.0590 
 146   0.0000       0.783261        21.3136 
 147   0.0000       0.796345        21.6697 
 148   0.0000       0.800372        21.7792 
 149   0.0000       0.803500        21.8644 
 150   0.0000       0.813288        22.1307 
 151   0.0000       0.832719        22.6594 
 152   0.0000       0.845183        22.9986 
 153   0.0000       0.852950        23.2100 
 154   0.0000       0.881063        23.9749 
 155   0.0000       0.884415        24.0662 
 156   0.0000       0.902945        24.5704 
 157   0.0000       0.911860        24.8130 
 158   0.0000       0.912410        24.8279 
 159   0.0000       0.927363        25.2348 
 160   0.0000       0.942183        25.6381 
 161   0.0000       0.945164        25.7192 
 162   0.0000       0.970310        26.4035 
 163   0.0000       0.983113        26.7519 
 164   0.0000       0.997729        27.1496 
 165   0.0000       1.011748        27.5310 
 166   0.0000       1.014438        27.6043 
 167   0.0000       1.024472        27.8773 
 168   0.0000       1.042352        28.3639 
 169   0.0000       1.051745        28.6194 
 170   0.0000       1.058941        28.8153 
 171   0.0000       1.074073        29.2270 
 172   0.0000       1.085279        29.5319 
 173   0.0000       1.088155        29.6102 
 174   0.0000       1.122281        30.5388 
 175   0.0000       1.134879        30.8816 
 176   0.0000       1.138024        30.9672 
 177   0.0000       1.173462        31.9315 
 178   0.0000       1.182396        32.1746 
 179   0.0000       1.195718        32.5371 
 180   0.0000       1.208865        32.8949 
 181   0.0000       1.221303        33.2333 
 182   0.0000       1.230049        33.4713 
 183   0.0000       1.250162        34.0186 
 184   0.0000       1.261051        34.3149 
 185   0.0000       1.268211        34.5098 
 186   0.0000       1.286602        35.0102 
 187   0.0000       1.292545        35.1719 
 188   0.0000       1.328928        36.1620 
 189   0.0000       1.344404        36.5831 
 190   0.0000       1.362722        37.0816 
 191   0.0000       1.375941        37.4412 
 192   0.0000       1.389857        37.8199 
 193   0.0000       1.408555        38.3287 
 194   0.0000       1.418404        38.5967 
 195   0.0000       1.436798        39.0973 
 196   0.0000       1.440962        39.2106 
 197   0.0000       1.465073        39.8667 
 198   0.0000       1.475397        40.1476 
 199   0.0000       1.488861        40.5140 
 200   0.0000       1.502369        40.8815 
 201   0.0000       1.512829        41.1662 
 202   0.0000       1.527541        41.5665 
 203   0.0000       1.533413        41.7263 
 204   0.0000       1.555721        42.3333 
 205   0.0000       1.572721        42.7959 
 206   0.0000       1.577463        42.9250 
 207   0.0000       1.596239        43.4359 
 208   0.0000       1.601059        43.5670 
 209   0.0000       1.624108        44.1942 
 210   0.0000       1.630023        44.3552 
 211   0.0000       1.649486        44.8848 
 212   0.0000       1.658035        45.1174 
 213   0.0000       1.662400        45.2362 
 214   0.0000       1.696277        46.1580 
 215   0.0000       1.707764        46.4706 
 216   0.0000       1.713659        46.6310 
 217   0.0000       1.732620        47.1470 
 218   0.0000       1.766254        48.0622 
 219   0.0000       1.777008        48.3548 
 220   0.0000       1.785830        48.5949 
 221   0.0000       1.788775        48.6750 
 222   0.0000       1.804693        49.1082 
 223   0.0000       1.819106        49.5004 
 224   0.0000       1.822548        49.5940 
 225   0.0000       1.840089        50.0714 
 226   0.0000       1.854836        50.4727 
 227   0.0000       1.865686        50.7679 
 228   0.0000       1.887800        51.3696 
 229   0.0000       1.911672        52.0193 
 230   0.0000       1.932994        52.5994 
 231   0.0000       1.956754        53.2460 
 232   0.0000       1.970294        53.6144 
 233   0.0000       1.973442        53.7001 
 234   0.0000       1.988751        54.1167 
 235   0.0000       2.043658        55.6108 
 236   0.0000       2.055107        55.9223 
 237   0.0000       2.067667        56.2641 
 238   0.0000       2.082440        56.6661 
 239   0.0000       2.089197        56.8499 
 240   0.0000       2.100843        57.1668 
 241   0.0000       2.110959        57.4421 
 242   0.0000       2.115135        57.5558 
 243   0.0000       2.126346        57.8608 
 244   0.0000       2.162426        58.8426 
 245   0.0000       2.176775        59.2330 
 246   0.0000       2.204580        59.9897 
 247   0.0000       2.213174        60.2235 
 248   0.0000       2.217901        60.3522 
 249   0.0000       2.239884        60.9503 
 250   0.0000       2.245899        61.1140 
 251   0.0000       2.253540        61.3219 
 252   0.0000       2.260823        61.5201 
 253   0.0000       2.286830        62.2278 
 254   0.0000       2.293229        62.4019 
 255   0.0000       2.340968        63.7010 
 256   0.0000       2.366695        64.4010 
 257   0.0000       2.385159        64.9035 
 258   0.0000       2.403058        65.3905 
 259   0.0000       2.408322        65.5338 
 260   0.0000       2.437959        66.3402 
 261   0.0000       2.443427        66.4890 
 262   0.0000       2.457884        66.8824 
 263   0.0000       2.465899        67.1005 
 264   0.0000       2.479432        67.4688 
 265   0.0000       2.484829        67.6156 
 266   0.0000       2.499977        68.0278 
 267   0.0000       2.510521        68.3148 
 268   0.0000       2.520892        68.5970 
 269   0.0000       2.535261        68.9880 
 270   0.0000       2.543276        69.2061 
 271   0.0000       2.557534        69.5940 
 272   0.0000       2.575392        70.0800 
 273   0.0000       2.586154        70.3728 
 274   0.0000       2.596131        70.6443 
 275   0.0000       2.597663        70.6860 
 276   0.0000       2.618110        71.2424 
 277   0.0000       2.638342        71.7929 
 278   0.0000       2.650216        72.1160 
 279   0.0000       2.670736        72.6744 
 280   0.0000       2.674535        72.7778 
 281   0.0000       2.693430        73.2920 
 282   0.0000       2.713144        73.8284 
 283   0.0000       2.726201        74.1837 
 284   0.0000       2.752226        74.8919 
 285   0.0000       2.764587        75.2282 
 286   0.0000       2.774124        75.4878 
 287   0.0000       2.791500        75.9606 
 288   0.0000       2.806532        76.3696 
 289   0.0000       2.827997        76.9537 
 290   0.0000       2.834128        77.1205 
 291   0.0000       2.842241        77.3413 
 292   0.0000       2.865134        77.9643 
 293   0.0000       2.875235        78.2391 
 294   0.0000       2.895090        78.7794 
 295   0.0000       2.910339        79.1943 
 296   0.0000       2.915800        79.3430 
 297   0.0000       2.932554        79.7989 
 298   0.0000       2.949664        80.2644 
 299   0.0000       2.972798        80.8939 
 300   0.0000       2.987376        81.2906 
 301   0.0000       2.991203        81.3948 
 302   0.0000       3.017231        82.1030 
 303   0.0000       3.027965        82.3951 
 304   0.0000       3.033867        82.5557 
 305   0.0000       3.039075        82.6974 
 306   0.0000       3.058691        83.2312 
 307   0.0000       3.071715        83.5856 
 308   0.0000       3.086719        83.9939 
 309   0.0000       3.094530        84.2064 
 310   0.0000       3.111866        84.6782 
 311   0.0000       3.120336        84.9086 
 312   0.0000       3.133629        85.2704 
 313   0.0000       3.151044        85.7443 
 314   0.0000       3.167263        86.1856 
 315   0.0000       3.172763        86.3353 
 316   0.0000       3.199912        87.0740 
 317   0.0000       3.208439        87.3061 
 318   0.0000       3.224001        87.7295 
 319   0.0000       3.225360        87.7665 
 320   0.0000       3.239740        88.1578 
 321   0.0000       3.247763        88.3761 
 322   0.0000       3.262381        88.7739 
 323   0.0000       3.269680        88.9725 
 324   0.0000       3.302544        89.8668 
 325   0.0000       3.322852        90.4194 
 326   0.0000       3.334063        90.7245 
 327   0.0000       3.339380        90.8691 
 328   0.0000       3.344108        90.9978 
 329   0.0000       3.358201        91.3813 
 330   0.0000       3.362652        91.5024 
 331   0.0000       3.383438        92.0680 
 332   0.0000       3.388969        92.2185 
 333   0.0000       3.400316        92.5273 
 334   0.0000       3.413953        92.8984 
 335   0.0000       3.417674        92.9996 
 336   0.0000       3.424796        93.1934 
 337   0.0000       3.455094        94.0179 
 338   0.0000       3.472964        94.5042 
 339   0.0000       3.500311        95.2483 
 340   0.0000       3.512921        95.5914 
 341   0.0000       3.522727        95.8583 
 342   0.0000       3.587291        97.6152 
 343   0.0000       3.597309        97.8877 
 344   0.0000       3.610274        98.2406 
 345   0.0000       3.626839        98.6913 
 346   0.0000       3.634276        98.8937 
 347   0.0000       3.635555        98.9285 
 348   0.0000       3.665969        99.7561 
 349   0.0000       3.681975       100.1916 
 350   0.0000       3.690339       100.4192 
 351   0.0000       3.707245       100.8793 
 352   0.0000       3.711516       100.9955 
 353   0.0000       3.730561       101.5137 
 354   0.0000       3.762788       102.3907 
 355   0.0000       3.783114       102.9438 
 356   0.0000       3.807244       103.6004 
 357   0.0000       3.816285       103.8464 
 358   0.0000       3.837205       104.4157 
 359   0.0000       3.849865       104.7602 
 360   0.0000       3.869834       105.3035 
 361   0.0000       3.883115       105.6649 
 362   0.0000       3.916279       106.5674 
 363   0.0000       3.930093       106.9433 
 364   0.0000       3.972878       108.1075 
 365   0.0000       3.979644       108.2916 
 366   0.0000       3.998924       108.8162 
 367   0.0000       4.014564       109.2418 
 368   0.0000       4.037191       109.8576 
 369   0.0000       4.055923       110.3673 
 370   0.0000       4.069468       110.7359 
 371   0.0000       4.115205       111.9804 
 372   0.0000       4.116568       112.0175 
 373   0.0000       4.141674       112.7007 
 374   0.0000       4.179739       113.7365 
 375   0.0000       4.197048       114.2075 
 376   0.0000       4.220178       114.8369 
 377   0.0000       4.252986       115.7296 
 378   0.0000       4.273951       116.3001 
 379   0.0000       4.310080       117.2832 
 380   0.0000       4.324678       117.6805 
 381   0.0000       4.433706       120.6473 
 382   0.0000       4.446651       120.9995 
 383   0.0000       4.494042       122.2891 
 384   0.0000       4.512944       122.8034 
 385   0.0000       4.565991       124.2469 
 386   0.0000       4.574333       124.4739 
 387   0.0000       4.600729       125.1922 
 388   0.0000       4.638008       126.2066 
 389   0.0000       4.662365       126.8694 
 390   0.0000       4.671366       127.1143 
 391   0.0000       4.687698       127.5587 
 392   0.0000       4.719760       128.4312 
 393   0.0000       4.732260       128.7713 
 394   0.0000       4.781663       130.1157 
 395   0.0000       4.792038       130.3980 
 396   0.0000       4.820169       131.1635 
 397   0.0000       4.862951       132.3276 
 398   0.0000       4.890983       133.0904 
 399   0.0000       4.930418       134.1635 
 400   0.0000       4.953464       134.7906 
 401   0.0000       4.982381       135.5775 
 402   0.0000       5.043643       137.2445 
 403   0.0000       5.078565       138.1948 
 404   0.0000       5.136798       139.7794 
 405   0.0000       5.156765       140.3227 
 406   0.0000       5.163691       140.5112 
 407   0.0000       5.228038       142.2622 
 408   0.0000       5.238980       142.5599 
 409   0.0000       5.271921       143.4563 
 410   0.0000       5.319446       144.7495 
 411   0.0000       5.334031       145.1464 
 412   0.0000       5.374912       146.2588 
 413   0.0000       5.519775       150.2007 
 414   0.0000       5.531785       150.5275 
 415   0.0000       5.608942       152.6271 
 416   0.0000       5.640977       153.4988 
 417   0.0000       5.675702       154.4437 
 418   0.0000       5.742549       156.2627 
 419   0.0000       5.743457       156.2874 
 420   0.0000       5.743608       156.2915 
 421   0.0000       5.743653       156.2928 
 422   0.0000       5.744831       156.3248 
 423   0.0000       5.745775       156.3505 
 424   0.0000       5.753039       156.5481 
 425   0.0000       5.847886       159.1291 
 426   0.0000       6.023897       163.9186 
 427   0.0000       6.081044       165.4736 
 428   0.0000       6.182144       168.2247 
 429   0.0000       6.288318       171.1138 
 430   0.0000       6.318059       171.9231 
 431   0.0000       6.328664       172.2117 
 432   0.0000       6.564077       178.6176 
 433   0.0000       6.583384       179.1430 
 434   0.0000       6.632424       180.4774 
 435   0.0000       6.725154       183.0007 
 436   0.0000       6.758929       183.9198 
 437   0.0000       6.852022       186.4530 
 438   0.0000       7.013025       190.8341 
 439   0.0000       7.045350       191.7137 
 440   0.0000       7.201131       195.9527 
 441   0.0000      22.006490       598.8270 
 442   0.0000      22.116051       601.8083 
 443   0.0000      22.223125       604.7220 
 444   0.0000      22.406095       609.7008 
 445   0.0000      22.442487       610.6911 
 446   0.0000      22.612888       615.3280 
 447   0.0000      22.680416       617.1655 
 448   0.0000      23.172018       630.5427 
 449   0.0000      31.596860       859.7943 
 450   0.0000      43.513829      1184.0715 
 451   0.0000      43.708944      1189.3808 

                 SPIN DOWN ORBITALS
  NO   OCC          E(Eh)            E(eV) 
   0   1.0000    -321.407527     -8745.9434 
   1   1.0000     -38.170674     -1038.6768 
   2   1.0000     -33.462045      -910.5485 
   3   1.0000     -33.461920      -910.5451 
   4   1.0000     -33.461227      -910.5263 
   5   1.0000     -18.769946      -510.7562 
   6   1.0000     -18.669267      -508.0166 
   7   1.0000     -14.135367      -384.6429 
   8   1.0000      -9.989298      -271.8226 
   9   1.0000      -9.929307      -270.1902 
  10   1.0000      -9.925051      -270.0744 
  11   1.0000      -9.909721      -269.6572 
  12   1.0000      -9.891386      -269.1583 
  13   1.0000      -9.886625      -269.0288 
  14   1.0000      -9.881556      -268.8908 
  15   1.0000      -9.859820      -268.2993 
  16   1.0000      -4.002835      -108.9227 
  17   1.0000      -2.538677       -69.0809 
  18   1.0000      -2.537932       -69.0606 
  19   1.0000      -2.537837       -69.0581 
  20   1.0000      -0.960740       -26.1431 
  21   1.0000      -0.955445       -25.9990 
  22   1.0000      -0.875197       -23.8153 
  23   1.0000      -0.777456       -21.1556 
  24   1.0000      -0.730456       -19.8767 
  25   1.0000      -0.662212       -18.0197 
  26   1.0000      -0.654796       -17.8179 
  27   1.0000      -0.597469       -16.2580 
  28   1.0000      -0.577421       -15.7124 
  29   1.0000      -0.566054       -15.4031 
  30   1.0000      -0.543572       -14.7914 
  31   1.0000      -0.511485       -13.9182 
  32   1.0000      -0.482321       -13.1246 
  33   1.0000      -0.478839       -13.0299 
  34   1.0000      -0.432609       -11.7719 
  35   1.0000      -0.423476       -11.5234 
  36   1.0000      -0.407309       -11.0834 
  37   1.0000      -0.391621       -10.6566 
  38   1.0000      -0.370229       -10.0744 
  39   1.0000      -0.362669        -9.8687 
  40   1.0000      -0.356644        -9.7048 
  41   1.0000      -0.349338        -9.5060 
  42   1.0000      -0.327539        -8.9128 
  43   1.0000      -0.307064        -8.3556 
  44   1.0000      -0.296529        -8.0690 
  45   1.0000      -0.291422        -7.9300 
  46   1.0000      -0.269657        -7.3377 
  47   1.0000      -0.207273        -5.6402 
  48   1.0000      -0.167680        -4.5628 
  49   1.0000      -0.145675        -3.9640 
  50   1.0000      -0.112319        -3.0563 
  51   1.0000      -0.112252        -3.0545 
  52   1.0000      -0.110850        -3.0164 
  53   1.0000      -0.110036        -2.9942 
  54   1.0000      -0.107580        -2.9274 
  55   0.0000      -0.070566        -1.9202 
  56   0.0000      -0.058767        -1.5991 
  57   0.0000      -0.035448        -0.9646 
  58   0.0000      -0.026151        -0.7116 
  59   0.0000      -0.019425        -0.5286 
  60   0.0000      -0.005462        -0.1486 
  61   0.0000       0.012367         0.3365 
  62   0.0000       0.020207         0.5499 
  63   0.0000       0.036848         1.0027 
  64   0.0000       0.046181         1.2566 
  65   0.0000       0.051341         1.3970 
  66   0.0000       0.059632         1.6227 
  67   0.0000       0.063995         1.7414 
  68   0.0000       0.082339         2.2406 
  69   0.0000       0.085150         2.3170 
  70   0.0000       0.112772         3.0687 
  71   0.0000       0.119038         3.2392 
  72   0.0000       0.121247         3.2993 
  73   0.0000       0.124953         3.4001 
  74   0.0000       0.127926         3.4810 
  75   0.0000       0.132150         3.5960 
  76   0.0000       0.141632         3.8540 
  77   0.0000       0.142472         3.8769 
  78   0.0000       0.151931         4.1343 
  79   0.0000       0.174202         4.7403 
  80   0.0000       0.182767         4.9733 
  81   0.0000       0.188286         5.1235 
  82   0.0000       0.200632         5.4595 
  83   0.0000       0.201945         5.4952 
  84   0.0000       0.210390         5.7250 
  85   0.0000       0.216300         5.8858 
  86   0.0000       0.222114         6.0440 
  87   0.0000       0.227938         6.2025 
  88   0.0000       0.236707         6.4411 
  89   0.0000       0.242323         6.5940 
  90   0.0000       0.243422         6.6238 
  91   0.0000       0.247620         6.7381 
  92   0.0000       0.251297         6.8381 
  93   0.0000       0.268469         7.3054 
  94   0.0000       0.274227         7.4621 
  95   0.0000       0.286330         7.7914 
  96   0.0000       0.288540         7.8516 
  97   0.0000       0.296411         8.0658 
  98   0.0000       0.306715         8.3461 
  99   0.0000       0.309475         8.4213 
 100   0.0000       0.318173         8.6579 
 101   0.0000       0.319774         8.7015 
 102   0.0000       0.334037         9.0896 
 103   0.0000       0.337322         9.1790 
 104   0.0000       0.344986         9.3875 
 105   0.0000       0.348888         9.4937 
 106   0.0000       0.359333         9.7779 
 107   0.0000       0.361901         9.8478 
 108   0.0000       0.366649         9.9770 
 109   0.0000       0.374041        10.1782 
 110   0.0000       0.381043        10.3687 
 111   0.0000       0.385575        10.4920 
 112   0.0000       0.386805        10.5255 
 113   0.0000       0.396615        10.7925 
 114   0.0000       0.403226        10.9723 
 115   0.0000       0.406563        11.0631 
 116   0.0000       0.418082        11.3766 
 117   0.0000       0.430133        11.7045 
 118   0.0000       0.437147        11.8954 
 119   0.0000       0.462069        12.5735 
 120   0.0000       0.470380        12.7997 
 121   0.0000       0.483530        13.1575 
 122   0.0000       0.498062        13.5530 
 123   0.0000       0.499247        13.5852 
 124   0.0000       0.510628        13.8949 
 125   0.0000       0.526761        14.3339 
 126   0.0000       0.533179        14.5085 
 127   0.0000       0.540211        14.6999 
 128   0.0000       0.552721        15.0403 
 129   0.0000       0.562686        15.3115 
 130   0.0000       0.569559        15.4985 
 131   0.0000       0.576813        15.6959 
 132   0.0000       0.598737        16.2925 
 133   0.0000       0.609645        16.5893 
 134   0.0000       0.625408        17.0182 
 135   0.0000       0.634948        17.2778 
 136   0.0000       0.646832        17.6012 
 137   0.0000       0.666522        18.1370 
 138   0.0000       0.676733        18.4149 
 139   0.0000       0.689975        18.7752 
 140   0.0000       0.711237        19.3538 
 141   0.0000       0.720593        19.6083 
 142   0.0000       0.730666        19.8824 
 143   0.0000       0.748048        20.3554 
 144   0.0000       0.768132        20.9019 
 145   0.0000       0.776721        21.1356 
 146   0.0000       0.783747        21.3268 
 147   0.0000       0.798436        21.7265 
 148   0.0000       0.801063        21.7980 
 149   0.0000       0.804803        21.8998 
 150   0.0000       0.823601        22.4113 
 151   0.0000       0.833487        22.6803 
 152   0.0000       0.847224        23.0541 
 153   0.0000       0.854053        23.2400 
 154   0.0000       0.882123        24.0038 
 155   0.0000       0.886396        24.1201 
 156   0.0000       0.905080        24.6285 
 157   0.0000       0.916342        24.9349 
 158   0.0000       0.937017        25.4975 
 159   0.0000       0.943358        25.6701 
 160   0.0000       0.953242        25.9390 
 161   0.0000       0.962044        26.1785 
 162   0.0000       0.970668        26.4132 
 163   0.0000       0.984061        26.7777 
 164   0.0000       1.001927        27.2638 
 165   0.0000       1.013647        27.5827 
 166   0.0000       1.014869        27.6160 
 167   0.0000       1.025464        27.9043 
 168   0.0000       1.043146        28.3854 
 169   0.0000       1.054535        28.6954 
 170   0.0000       1.063468        28.9384 
 171   0.0000       1.076567        29.2949 
 172   0.0000       1.086267        29.5588 
 173   0.0000       1.088498        29.6195 
 174   0.0000       1.122555        30.5463 
 175   0.0000       1.137074        30.9414 
 176   0.0000       1.143916        31.1275 
 177   0.0000       1.174836        31.9689 
 178   0.0000       1.185137        32.2492 
 179   0.0000       1.196805        32.5667 
 180   0.0000       1.209963        32.9248 
 181   0.0000       1.221786        33.2465 
 182   0.0000       1.230472        33.4828 
 183   0.0000       1.251896        34.0658 
 184   0.0000       1.261188        34.3187 
 185   0.0000       1.268382        34.5144 
 186   0.0000       1.287032        35.0219 
 187   0.0000       1.292700        35.1762 
 188   0.0000       1.329185        36.1690 
 189   0.0000       1.344869        36.5957 
 190   0.0000       1.363197        37.0945 
 191   0.0000       1.376278        37.4504 
 192   0.0000       1.390173        37.8285 
 193   0.0000       1.408810        38.3357 
 194   0.0000       1.418559        38.6009 
 195   0.0000       1.437267        39.1100 
 196   0.0000       1.441255        39.2185 
 197   0.0000       1.465499        39.8783 
 198   0.0000       1.475464        40.1494 
 199   0.0000       1.489091        40.5202 
 200   0.0000       1.502700        40.8905 
 201   0.0000       1.512962        41.1698 
 202   0.0000       1.527789        41.5732 
 203   0.0000       1.533659        41.7330 
 204   0.0000       1.555864        42.3372 
 205   0.0000       1.573279        42.8111 
 206   0.0000       1.577668        42.9305 
 207   0.0000       1.596441        43.4414 
 208   0.0000       1.601266        43.5727 
 209   0.0000       1.624284        44.1990 
 210   0.0000       1.630112        44.3576 
 211   0.0000       1.649675        44.8899 
 212   0.0000       1.658166        45.1210 
 213   0.0000       1.662987        45.2522 
 214   0.0000       1.696440        46.1625 
 215   0.0000       1.707805        46.4717 
 216   0.0000       1.713861        46.6365 
 217   0.0000       1.732785        47.1515 
 218   0.0000       1.766683        48.0739 
 219   0.0000       1.777237        48.3611 
 220   0.0000       1.786008        48.5997 
 221   0.0000       1.789111        48.6842 
 222   0.0000       1.804794        49.1109 
 223   0.0000       1.819422        49.5090 
 224   0.0000       1.822673        49.5974 
 225   0.0000       1.840239        50.0754 
 226   0.0000       1.855154        50.4813 
 227   0.0000       1.865993        50.7762 
 228   0.0000       1.888218        51.3810 
 229   0.0000       1.912136        52.0319 
 230   0.0000       1.933250        52.6064 
 231   0.0000       1.957027        53.2534 
 232   0.0000       1.970854        53.6297 
 233   0.0000       1.973596        53.7043 
 234   0.0000       1.989199        54.1289 
 235   0.0000       2.043806        55.6148 
 236   0.0000       2.055354        55.9290 
 237   0.0000       2.068534        56.2877 
 238   0.0000       2.089284        56.8523 
 239   0.0000       2.092245        56.9329 
 240   0.0000       2.101614        57.1878 
 241   0.0000       2.111201        57.4487 
 242   0.0000       2.115605        57.5685 
 243   0.0000       2.126690        57.8702 
 244   0.0000       2.162790        58.8525 
 245   0.0000       2.177807        59.2611 
 246   0.0000       2.208995        60.1098 
 247   0.0000       2.216014        60.3008 
 248   0.0000       2.220177        60.4141 
 249   0.0000       2.240544        60.9683 
 250   0.0000       2.246880        61.1407 
 251   0.0000       2.254182        61.3394 
 252   0.0000       2.261795        61.5466 
 253   0.0000       2.287225        62.2386 
 254   0.0000       2.306901        62.7740 
 255   0.0000       2.341084        63.7041 
 256   0.0000       2.367655        64.4272 
 257   0.0000       2.385198        64.9045 
 258   0.0000       2.403527        65.4033 
 259   0.0000       2.408700        65.5441 
 260   0.0000       2.438231        66.3476 
 261   0.0000       2.443454        66.4898 
 262   0.0000       2.458232        66.8919 
 263   0.0000       2.465966        67.1024 
 264   0.0000       2.479645        67.4746 
 265   0.0000       2.484984        67.6199 
 266   0.0000       2.500337        68.0376 
 267   0.0000       2.512138        68.3588 
 268   0.0000       2.520985        68.5995 
 269   0.0000       2.535431        68.9926 
 270   0.0000       2.543452        69.2109 
 271   0.0000       2.557827        69.6020 
 272   0.0000       2.575538        70.0840 
 273   0.0000       2.586386        70.3791 
 274   0.0000       2.596306        70.6491 
 275   0.0000       2.597910        70.6927 
 276   0.0000       2.618265        71.2466 
 277   0.0000       2.638507        71.7974 
 278   0.0000       2.650392        72.1208 
 279   0.0000       2.670850        72.6775 
 280   0.0000       2.674919        72.7883 
 281   0.0000       2.693538        73.2949 
 282   0.0000       2.713365        73.8344 
 283   0.0000       2.726333        74.1873 
 284   0.0000       2.752551        74.9007 
 285   0.0000       2.764698        75.2313 
 286   0.0000       2.774220        75.4904 
 287   0.0000       2.791555        75.9621 
 288   0.0000       2.806848        76.3782 
 289   0.0000       2.828235        76.9602 
 290   0.0000       2.834390        77.1277 
 291   0.0000       2.842603        77.3512 
 292   0.0000       2.865341        77.9699 
 293   0.0000       2.875765        78.2536 
 294   0.0000       2.895674        78.7953 
 295   0.0000       2.910462        79.1977 
 296   0.0000       2.916140        79.3522 
 297   0.0000       2.932687        79.8025 
 298   0.0000       2.950581        80.2894 
 299   0.0000       2.972924        80.8974 
[...]
     34       0.000004   0.000156  -0.000160  -0.000004  -0.008866   0.003642
     35       0.000099   0.000002  -0.000003   0.000179  -0.000686   0.000130
     36      -0.000003   0.000270  -0.000057  -0.000551   0.001765   0.001309
     37       0.000038  -0.000143   0.000008  -0.001206  -0.000246   0.000446
     38      -0.000098   0.000100  -0.000008  -0.000233   0.000650   0.000467
     39      -0.000018  -0.000195   0.000052   0.000436  -0.001395  -0.000938
     40       0.000040   0.000037  -0.000009   0.000171   0.000258   0.000100
     41      -0.000071  -0.000036   0.000040   0.000178  -0.000475  -0.000293
     42      -0.000195   0.000254  -0.000263   0.003570   0.002110   0.002578
     43       0.000268   0.000157  -0.000261  -0.007836   0.003743   0.003329
     44       0.000175   0.000304  -0.000135   0.000232   0.001021   0.001140
     45       0.007277  -0.003611  -0.013015  -0.411917   0.034313  -0.013500
     46       0.013255  -0.008584  -0.023765  -0.891067   0.076744  -0.031464
     47       0.003092  -0.000855  -0.004878  -0.137039   0.011128  -0.004987
     48      -0.236265   0.059167  -0.219423   0.000123   0.023125   0.031021
     49       0.605768  -0.139663   0.534244  -0.003573  -0.051180  -0.087115
     50      -0.289426   0.070981  -0.271938   0.001518   0.027038   0.045251
     51      -0.149923  -0.044662   0.174255  -0.009845  -0.002593  -0.014689
     52      -0.496868  -0.126563   0.530465  -0.022248  -0.010329  -0.043102
     53      -0.386821  -0.101500   0.437595  -0.018903  -0.006694  -0.034680
     54      -0.009346   0.753954   0.275271  -0.014401   0.160917   0.489657
     55      -0.000859  -0.112535  -0.038077   0.002049  -0.019494  -0.061677
     56       0.003534   0.037259   0.011653   0.000157   0.005783   0.017231
     57       0.003811  -0.131463  -0.009165   0.000376   0.049743   0.145607
     58      -0.013109   0.540554   0.032829  -0.004962  -0.229762  -0.669777
     59       0.008032  -0.190832  -0.011995   0.002647   0.085570   0.248987
     60       0.017266   0.002276   0.011383   0.046817   0.451156  -0.173802
     61      -0.024364  -0.004329  -0.014764  -0.076542  -0.762578   0.293529
     62       0.006841   0.000524   0.005356   0.020443   0.196547  -0.076828
     63       0.001265  -0.000197   0.001471  -0.000640   0.055466  -0.020610
     64       0.002007  -0.000809   0.003448  -0.001397   0.118472  -0.045098
     65       0.000795  -0.000593   0.000861  -0.000340   0.014529  -0.006080
     66       0.000011   0.000010  -0.000011  -0.000016   0.000113   0.000100
     67      -0.000010  -0.000007   0.000010   0.000010  -0.000084  -0.000066
     68       0.000014   0.000002  -0.000009  -0.000007   0.000038   0.000034
                 66         67         68    
      0       0.001103  -0.000030   0.029425
      1      -0.000017   0.000024   0.051966
      2       0.000441  -0.000018   0.016311
      3       0.000130  -0.000083   0.001750
      4       0.002265  -0.000264   0.001782
      5       0.000160  -0.000039   0.000755
      6      -0.000279  -0.000783   0.000076
      7       0.000145  -0.001089  -0.001224
      8      -0.000413  -0.000275  -0.000011
      9       0.000918  -0.000686   0.000039
     10      -0.000268  -0.001318  -0.000015
     11      -0.000345  -0.000279  -0.000042
     12      -0.002397  -0.000037  -0.000083
     13       0.004769  -0.000077  -0.000044
     14      -0.000905  -0.000068   0.000004
     15      -0.015525   0.000216  -0.000000
     16       0.020330  -0.000144   0.000071
     17      -0.005500   0.000062  -0.000015
     18      -0.013319   0.000736   0.000712
     19       0.006956   0.000058  -0.000299
     20       0.053142  -0.000921  -0.000904
     21       0.006584   0.000022   0.000339
     22       0.307151  -0.004164  -0.004369
     23      -0.765549   0.010286   0.010865
     24      -0.063651  -0.007871  -0.005623
     25      -0.002696  -0.001266  -0.001214
     26       0.041806   0.002449   0.003226
     27       0.227013  -0.002570  -0.005737
     28      -0.405290   0.004834   0.009667
     29       0.004122  -0.000118  -0.000164
     30      -0.005389  -0.008796   0.000360
     31       0.008670   0.010019  -0.000028
     32      -0.003202  -0.003463  -0.000023
     33       0.001046   0.037682  -0.000218
     34      -0.000965   0.076054   0.000374
     35       0.000169   0.010366  -0.000092
     36      -0.004200   0.002751   0.000182
     37      -0.001257  -0.001487  -0.000940
     38      -0.001447   0.000995   0.000080
     39       0.003123  -0.000463  -0.000298
     40      -0.000395   0.000080  -0.000112
     41       0.001076  -0.000169  -0.000121
     42      -0.007704   0.000406  -0.490084
     43      -0.011565   0.001443  -0.826807
     44      -0.003671   0.000233  -0.268389
     45       0.001032   0.005595  -0.001171
     46       0.004450   0.013076   0.004502
     47       0.001478   0.001924  -0.000171
     48       0.019890   0.000234   0.000336
     49      -0.044475   0.000144  -0.000434
     50       0.023056  -0.000049   0.000224
     51      -0.002933   0.001271   0.000275
     52      -0.022068   0.002079   0.000143
     53      -0.022985   0.001673  -0.000013
     54       0.155294  -0.002194   0.000228
     55      -0.024476   0.000357   0.000077
     56      -0.000158  -0.000184  -0.000119
     57       0.041612  -0.000288   0.000007
     58      -0.201286   0.001314  -0.000420
     59       0.071783  -0.000516   0.000314
     60       0.065176   0.070474   0.000282
     61      -0.111755  -0.112245  -0.000328
     62       0.030880   0.030125   0.000421
     63       0.001882  -0.428080  -0.000724
     64       0.006363  -0.881252  -0.000595
     65       0.001244  -0.117066  -0.000096
     66      -0.000317  -0.000000   0.000073
     67       0.000223  -0.000003   0.000019
     68      -0.000122   0.000000   0.000026


-----------
IR SPECTRUM
-----------

 Mode   freq       eps      Int      T**2         TX        TY        TZ
       cm**-1   L/(mol*cm) km/mol    a.u.
----------------------------------------------------------------------------
  6:     12.46   0.000266    1.35  0.006672  ( 0.002282 -0.005691  0.081452)
  7:     58.73   0.000625    3.16  0.003320  ( 0.025196 -0.046306  0.023248)
  8:     69.51   0.000490    2.48  0.002199  (-0.018993  0.042242 -0.007367)
  9:     74.76   0.001138    5.75  0.004752  (-0.061551  0.015502  0.026888)
 10:    149.34   0.000177    0.89  0.000370  ( 0.015403 -0.003297 -0.011024)
 11:    156.48   0.001659    8.38  0.003308  ( 0.052223 -0.023915 -0.002922)
 12:    193.81   0.009978   50.42  0.016066  (-0.123722  0.021909  0.016689)
 13:    243.80   0.002203   11.13  0.002820  (-0.034612  0.022491 -0.033410)
 14:    260.55   0.001990   10.05  0.002383  ( 0.040623 -0.021988  0.015785)
 15:    294.57   0.000750    3.79  0.000794  (-0.023758  0.013446  0.006986)
 16:    303.88   0.011027   55.72  0.011324  (-0.039063 -0.010024  0.098476)
 17:    366.81   0.004703   23.77  0.004001  (-0.039782  0.017722 -0.045873)
 18:    374.50   0.010252   51.81  0.008543  ( 0.086529 -0.027524  0.017255)
 19:    429.03   0.000683    3.45  0.000497  ( 0.017273 -0.007883  0.011689)
 20:    443.29   0.000639    3.23  0.000450  (-0.020315  0.001847 -0.005822)
 21:    484.80   0.003743   18.91  0.002409  (-0.046402  0.002038  0.015867)
 22:    514.93   0.001413    7.14  0.000856  ( 0.021317 -0.019649 -0.003963)
 23:    592.32   0.001279    6.46  0.000674  ( 0.019024  0.017657  0.000082)
 24:    622.85   0.004696   23.73  0.002353  (-0.030142  0.012019 -0.036055)
 25:    687.66   0.003656   18.48  0.001659  ( 0.028497 -0.028895 -0.003480)
 26:    711.76   0.001969    9.95  0.000863  ( 0.023374 -0.017305 -0.004175)
 27:    781.37   0.005679   28.70  0.002268  ( 0.040041 -0.021548 -0.014153)
 28:    788.20   0.000989    5.00  0.000391  (-0.015589  0.010198 -0.006667)
 29:    798.97   0.008193   41.40  0.003200  ( 0.022869 -0.013163  0.050037)
 30:    818.06   0.003915   19.78  0.001493  (-0.027568  0.016486 -0.021486)
 31:    840.29   0.011908   60.18  0.004422  (-0.060908  0.016220 -0.021204)
 32:    877.71   0.003047   15.40  0.001083  ( 0.029839 -0.013218 -0.004277)
 33:    899.79   0.000998    5.04  0.000346  (-0.018358  0.001150 -0.002796)
 34:    930.87   0.004539   22.94  0.001522  ( 0.032524 -0.019514  0.009107)
 35:    958.27   0.003877   19.59  0.001263  ( 0.033207  0.011178  0.005918)
 36:   1024.11   0.010603   53.58  0.003231  ( 0.048047 -0.025194  0.016963)
 37:   1049.79   0.000747    3.77  0.000222  (-0.004560 -0.014120 -0.001339)
 38:   1091.75   0.011948   60.38  0.003415  ( 0.005798 -0.057715  0.007108)
 39:   1117.62   0.003910   19.76  0.001092  (-0.015842 -0.020107  0.020894)
 40:   1153.13   0.000875    4.42  0.000237  (-0.007615 -0.008971 -0.009914)
 41:   1203.71   0.005993   30.29  0.001554  (-0.038881  0.003571  0.005410)
 42:   1238.75   0.001127    5.70  0.000284  (-0.006725 -0.014680  0.004816)
 43:   1247.75   0.005278   26.68  0.001320  (-0.029376  0.020868 -0.004663)
 44:   1255.20   0.005247   26.52  0.001305  ( 0.035956 -0.001154  0.003235)
 45:   1299.71   0.003812   19.27  0.000915  ( 0.013022 -0.000082 -0.027308)
 46:   1316.04   0.012573   63.54  0.002981  (-0.052509 -0.001932  0.014849)
 47:   1334.98   0.017274   87.30  0.004038  ( 0.056770 -0.024017 -0.015442)
 48:   1356.11   0.012852   64.95  0.002957  ( 0.045632 -0.028414  0.008232)
 49:   1368.66   0.008344   42.17  0.001902  (-0.005977  0.009542  0.042139)
 50:   1421.33   0.000924    4.67  0.000203  ( 0.003613 -0.007806  0.011351)
 51:   1429.03   0.007874   39.79  0.001720  (-0.041298  0.002208 -0.003027)
 52:   1446.20   0.003123   15.78  0.000674  ( 0.013231 -0.019899  0.010139)
 53:   1485.42   0.033950  171.57  0.007132  (-0.077680  0.032316  0.007345)
 54:   1506.30   0.015145   76.54  0.003138  ( 0.023038 -0.024643 -0.044717)
 55:   1516.72   0.001855    9.37  0.000382  ( 0.017222 -0.007215  0.005744)
 56:   1536.41   0.009109   46.03  0.001850  (-0.025282  0.009015 -0.033610)
 57:   1579.22   0.018514   93.56  0.003659  (-0.027108  0.046507  0.027582)
 58:   2728.59   0.193147  976.08  0.022090  ( 0.125338 -0.065901  0.045134)
 59:   2952.72   0.474841  2399.65  0.050184  (-0.169788  0.136085 -0.053267)
 60:   2968.31   0.062310  314.89  0.006551  ( 0.064266 -0.035825  0.033723)
 61:   2998.52   0.006211   31.39  0.000646  (-0.014818 -0.020196  0.004356)
 62:   3011.90   0.011545   58.35  0.001196  (-0.032651 -0.011217 -0.002077)
 63:   3043.06   0.004851   24.52  0.000498  ( 0.004059  0.021929  0.000415)
 64:   3057.12   0.121517  614.10  0.012404  ( 0.107002 -0.023854 -0.019640)
 65:   3060.11   0.149840  757.23  0.015280  ( 0.117134 -0.038601 -0.008368)
 66:   3085.77   1.831536  9255.83  0.185223  (-0.412250  0.114360  0.046848)
 67:   3119.15   0.001499    7.57  0.000150  ( 0.009376  0.007875  0.000067)
 68:   3636.45   0.002670   13.49  0.000229  (-0.009141 -0.002209  0.011860)

* The epsilon (eps) is given for a Dirac delta lineshape.
** The dipole moment derivative (T) already includes vibrational overlap.

The first frequency considered to be a vibration is 6
The total number of vibrations considered is 63


--------------------------
THERMOCHEMISTRY AT 298.15K
--------------------------

Temperature         ... 298.15 K
Pressure            ... 1.00 atm
Total Mass          ... 216.73 AMU

Throughout the following assumptions are being made:
  (1) The electronic state is orbitally nondegenerate
      but the spin degeneracy is treated
  (2) There are no thermally accessible electronically excited states
  (3) Hindered rotations indicated by low frequency modes are not
      treated as such but are treated as vibrations and this may
      cause some error
  (4) All equations used are the standard statistical mechanics
      equations for an ideal gas
  (5) All vibrations are strictly harmonic

freq.      12.46  E(vib)   ...       0.57 
freq.      58.73  E(vib)   ...       0.51 
freq.      69.51  E(vib)   ...       0.50 
freq.      74.76  E(vib)   ...       0.49 
freq.     149.34  E(vib)   ...       0.40 
freq.     156.48  E(vib)   ...       0.40 
freq.     193.81  E(vib)   ...       0.36 
freq.     243.80  E(vib)   ...       0.31 
freq.     260.55  E(vib)   ...       0.30 
freq.     294.57  E(vib)   ...       0.27 
freq.     303.88  E(vib)   ...       0.26 
freq.     366.81  E(vib)   ...       0.22 
freq.     374.50  E(vib)   ...       0.21 
freq.     429.03  E(vib)   ...       0.18 
freq.     443.29  E(vib)   ...       0.17 
freq.     484.80  E(vib)   ...       0.15 
freq.     514.93  E(vib)   ...       0.13 
freq.     592.32  E(vib)   ...       0.10 
freq.     622.85  E(vib)   ...       0.09 
freq.     687.66  E(vib)   ...       0.07 
freq.     711.76  E(vib)   ...       0.07 
freq.     781.37  E(vib)   ...       0.05 
freq.     788.20  E(vib)   ...       0.05 
freq.     798.97  E(vib)   ...       0.05 
freq.     818.06  E(vib)   ...       0.05 
freq.     840.29  E(vib)   ...       0.04 
freq.     877.71  E(vib)   ...       0.04 
freq.     899.79  E(vib)   ...       0.03 
freq.     930.87  E(vib)   ...       0.03 
freq.     958.27  E(vib)   ...       0.03 
freq.    1024.11  E(vib)   ...       0.02 
freq.    1049.79  E(vib)   ...       0.02 
freq.    1091.75  E(vib)   ...       0.02 
freq.    1117.62  E(vib)   ...       0.01 
freq.    1153.13  E(vib)   ...       0.01 
freq.    1203.71  E(vib)   ...       0.01 
freq.    1238.75  E(vib)   ...       0.01 
freq.    1247.75  E(vib)   ...       0.01 
freq.    1255.20  E(vib)   ...       0.01 
freq.    1299.71  E(vib)   ...       0.01 
freq.    1316.04  E(vib)   ...       0.01 
freq.    1334.98  E(vib)   ...       0.01 
freq.    1356.11  E(vib)   ...       0.01 
freq.    1368.66  E(vib)   ...       0.01 
freq.    1421.33  E(vib)   ...       0.00 
freq.    1429.03  E(vib)   ...       0.00 
freq.    1446.20  E(vib)   ...       0.00 
freq.    1485.42  E(vib)   ...       0.00 
freq.    1506.30  E(vib)   ...       0.00 
freq.    1516.72  E(vib)   ...       0.00 
freq.    1536.41  E(vib)   ...       0.00 
freq.    1579.22  E(vib)   ...       0.00 
freq.    2728.59  E(vib)   ...       0.00 
freq.    2952.72  E(vib)   ...       0.00 
freq.    2968.31  E(vib)   ...       0.00 
freq.    2998.52  E(vib)   ...       0.00 
freq.    3011.90  E(vib)   ...       0.00 
freq.    3043.06  E(vib)   ...       0.00 
freq.    3057.12  E(vib)   ...       0.00 
freq.    3060.11  E(vib)   ...       0.00 
freq.    3085.77  E(vib)   ...       0.00 
freq.    3119.15  E(vib)   ...       0.00 
freq.    3636.45  E(vib)   ...       0.00 

------------
INNER ENERGY
------------

The inner energy is: U= E(el) + E(ZPE) + E(vib) + E(rot) + E(trans)
    E(el)   - is the total energy from the electronic structure calculation
              = E(kin-el) + E(nuc-el) + E(el-el) + E(nuc-nuc)
    E(ZPE)  - the the zero temperature vibrational energy from the frequency calculation
    E(vib)  - the the finite temperature correction to E(ZPE) due to population
              of excited vibrational states
    E(rot)  - is the rotational thermal energy
    E(trans)- is the translational thermal energy

Summary of contributions to the inner energy U:
Electronic energy                ...  -2156.47582152 Eh
Zero point energy                ...      0.17628233 Eh     110.62 kcal/mol
Thermal vibrational correction   ...      0.01005647 Eh       6.31 kcal/mol
Thermal rotational correction    ...      0.00141627 Eh       0.89 kcal/mol
Thermal translational correction ...      0.00141627 Eh       0.89 kcal/mol
-----------------------------------------------------------------------
Total thermal energy                  -2156.28665018 Eh


Summary of corrections to the electronic energy:
(perhaps to be used in another calculation)
Total thermal correction                  0.01288901 Eh       8.09 kcal/mol
Non-thermal (ZPE) correction              0.17628233 Eh     110.62 kcal/mol
-----------------------------------------------------------------------
Total correction                          0.18917135 Eh     118.71 kcal/mol


--------
ENTHALPY
--------

The enthalpy is H = U + kB*T
                kB is Boltzmann's constant
Total free energy                 ...  -2156.28665018 Eh 
Thermal Enthalpy correction       ...      0.00094421 Eh       0.59 kcal/mol
-----------------------------------------------------------------------
Total Enthalpy                    ...  -2156.28570597 Eh


Note: Only C1 symmetry has been detected, increase convergence thresholds 
      if your molecule has a higher symmetry. Symmetry factor of 1.0 is   
      used for the rotational entropy correction. 
 

Note: Rotational entropy computed according to Herzberg 
Infrared and Raman Spectra, Chapter V,1, Van Nostrand Reinhold, 1945 
Point Group:  C1, Symmetry Number:   1  
Rotational constants in cm-1:     0.062929     0.010314     0.009787 

Vibrational entropy computed according to the QRRHO of S. Grimme
Chem.Eur.J. 2012 18 9955


-------
ENTROPY
-------

The entropy contributions are T*S = T*(S(el)+S(vib)+S(rot)+S(trans))
     S(el)   - electronic entropy
     S(vib)  - vibrational entropy
     S(rot)  - rotational entropy
     S(trans)- translational entropy
The entropies will be listed as multiplied by the temperature to get
units of energy

Electronic entropy                ...      0.00065446 Eh      0.41 kcal/mol
Vibrational entropy               ...      0.01794470 Eh     11.26 kcal/mol
Rotational entropy                ...      0.01516016 Eh      9.51 kcal/mol
Translational entropy             ...      0.01996671 Eh     12.53 kcal/mol
-----------------------------------------------------------------------
Final entropy term                ...      0.05372602 Eh     33.71 kcal/mol

In case the symmetry of your molecule has not been determined correctly
or in case you have a reason to use a different symmetry number we print 
out the resulting rotational entropy values for sn=1,12 :
 --------------------------------------------------------
|  sn= 1 | S(rot)=       0.01516016 Eh      9.51 kcal/mol|
|  sn= 2 | S(rot)=       0.01450571 Eh      9.10 kcal/mol|
|  sn= 3 | S(rot)=       0.01412287 Eh      8.86 kcal/mol|
|  sn= 4 | S(rot)=       0.01385125 Eh      8.69 kcal/mol|
|  sn= 5 | S(rot)=       0.01364056 Eh      8.56 kcal/mol|
|  sn= 6 | S(rot)=       0.01346842 Eh      8.45 kcal/mol|
|  sn= 7 | S(rot)=       0.01332287 Eh      8.36 kcal/mol|
|  sn= 8 | S(rot)=       0.01319679 Eh      8.28 kcal/mol|
|  sn= 9 | S(rot)=       0.01308558 Eh      8.21 kcal/mol|
|  sn=10 | S(rot)=       0.01298611 Eh      8.15 kcal/mol|
|  sn=11 | S(rot)=       0.01289612 Eh      8.09 kcal/mol|
|  sn=12 | S(rot)=       0.01281396 Eh      8.04 kcal/mol|
 --------------------------------------------------------


-------------------
GIBBS FREE ENERGY
-------------------

The Gibbs free energy is G = H - T*S

Total enthalpy                    ...  -2156.28570597 Eh 
Total entropy correction          ...     -0.05372602 Eh    -33.71 kcal/mol
-----------------------------------------------------------------------
Final Gibbs free energy         ...  -2156.33943199 Eh

For completeness - the Gibbs free energy minus the electronic energy
G-E(el)                           ...      0.13638953 Eh     85.59 kcal/mol



Timings for individual modules:

Sum of individual times         ...    46479.829 sec (= 774.664 min)
GTO integral calculation        ...       35.042 sec (=   0.584 min)   0.1 %
SCF iterations                  ...    10155.087 sec (= 169.251 min)  21.8 %
SCF Gradient evaluation         ...     1230.861 sec (=  20.514 min)   2.6 %
Geometry relaxation             ...        0.642 sec (=   0.011 min)   0.0 %
Numerical frequency calculation ...    35058.197 sec (= 584.303 min)  75.4 %
                             ****ORCA TERMINATED NORMALLY****
TOTAL RUN TIME: 0 days 12 hours 53 minutes 2 seconds 991 msec
