
                                 *****************
                                 * O   R   C   A *
                                 *****************

                                            #,                                       
                                            ###                                      
                                            ####                                     
                                            #####                                    
                                            ######                                   
                                           ########,                                 
                                     ,,################,,,,,                         
                               ,,#################################,,                 
                          ,,##########################################,,             
                       ,#########################################, ''#####,          
                    ,#############################################,,   '####,        
                  ,##################################################,,,,####,       
                ,###########''''           ''''###############################       
              ,#####''   ,,,,##########,,,,          '''####'''          '####       
            ,##' ,,,,###########################,,,                        '##       
           ' ,,###''''                  '''############,,,                           
         ,,##''                                '''############,,,,        ,,,,,,###''
      ,#''                                            '''#######################'''  
     '                                                          ''''####''''         
             ,#######,   #######,   ,#######,      ##                                
            ,#'     '#,  ##    ##  ,#'     '#,    #''#        ######   ,####,        
            ##       ##  ##   ,#'  ##            #'  '#       #        #'  '#        
            ##       ##  #######   ##           ,######,      #####,   #    #        
            '#,     ,#'  ##    ##  '#,     ,#' ,#      #,         ##   #,  ,#        
             '#######'   ##     ##  '#######'  #'      '#     #####' # '####'        



                  #######################################################
                  #                        -***-                        #
                  #          Department of theory and spectroscopy      #
                  #    Directorship and core code : Frank Neese         #
                  #        Max Planck Institute fuer Kohlenforschung    #
                  #                Kaiser Wilhelm Platz 1               #
                  #                 D-45470 Muelheim/Ruhr               #
                  #                      Germany                        #
                  #                                                     #
                  #                  All rights reserved                #
                  #                        -***-                        #
                  #######################################################


                         Program Version 5.0.2 -  RELEASE  -


 With contributions from (in alphabetic order):
   Daniel Aravena         : Magnetic Suceptibility
   Michael Atanasov       : Ab Initio Ligand Field Theory (pilot matlab implementation)
   Alexander A. Auer      : GIAO ZORA, VPT2 properties, NMR spectrum
   Ute Becker             : Parallelization
   Giovanni Bistoni       : ED, misc. LED, open-shell LED, HFLD
   Martin Brehm           : Molecular dynamics
   Dmytro Bykov           : SCF Hessian
   Vijay G. Chilkuri      : MRCI spin determinant printing, contributions to CSF-ICE
   Dipayan Datta          : RHF DLPNO-CCSD density
   Achintya Kumar Dutta   : EOM-CC, STEOM-CC
   Dmitry Ganyushin       : Spin-Orbit,Spin-Spin,Magnetic field MRCI
   Miquel Garcia          : C-PCM and meta-GGA Hessian, CC/C-PCM, Gaussian charge scheme
   Yang Guo               : DLPNO-NEVPT2, F12-NEVPT2, CIM, IAO-localization
   Andreas Hansen         : Spin unrestricted coupled pair/coupled cluster methods
   Benjamin Helmich-Paris : MC-RPA, TRAH-SCF, COSX integrals
   Lee Huntington         : MR-EOM, pCC
   Robert Izsak           : Overlap fitted RIJCOSX, COSX-SCS-MP3, EOM
   Marcus Kettner         : VPT2
   Christian Kollmar      : KDIIS, OOCD, Brueckner-CCSD(T), CCSD density, CASPT2, CASPT2-K
   Simone Kossmann        : Meta GGA functionals, TD-DFT gradient, OOMP2, MP2 Hessian
   Martin Krupicka        : Initial AUTO-CI
   Lucas Lang             : DCDCAS
   Marvin Lechner         : AUTO-CI (C++ implementation), FIC-MRCC
   Dagmar Lenk            : GEPOL surface, SMD
   Dimitrios Liakos       : Extrapolation schemes; Compound Job, initial MDCI parallelization
   Dimitrios Manganas     : Further ROCIS development; embedding schemes
   Dimitrios Pantazis     : SARC Basis sets
   Anastasios Papadopoulos: AUTO-CI, single reference methods and gradients
   Taras Petrenko         : DFT Hessian,TD-DFT gradient, ASA, ECA, R-Raman, ABS, FL, XAS/XES, NRVS
   Peter Pinski           : DLPNO-MP2, DLPNO-MP2 Gradient
   Christoph Reimann      : Effective Core Potentials
   Marius Retegan         : Local ZFS, SOC
   Christoph Riplinger    : Optimizer, TS searches, QM/MM, DLPNO-CCSD(T), (RO)-DLPNO pert. Triples
   Tobias Risthaus        : Range-separated hybrids, TD-DFT gradient, RPA, STAB
   Michael Roemelt        : Original ROCIS implementation
   Masaaki Saitow         : Open-shell DLPNO-CCSD energy and density
   Barbara Sandhoefer     : DKH picture change effects
   Avijit Sen             : IP-ROCIS
   Kantharuban Sivalingam : CASSCF convergence, NEVPT2, FIC-MRCI
   Bernardo de Souza      : ESD, SOC TD-DFT
   Georgi Stoychev        : AutoAux, RI-MP2 NMR, DLPNO-MP2 response
   Willem Van den Heuvel  : Paramagnetic NMR
   Boris Wezisla          : Elementary symmetry handling
   Frank Wennmohs         : Technical directorship


 We gratefully acknowledge several colleagues who have allowed us to
 interface, adapt or use parts of their codes:
   Stefan Grimme, W. Hujo, H. Kruse, P. Pracht,  : VdW corrections, initial TS optimization,
                  C. Bannwarth, S. Ehlert          DFT functionals, gCP, sTDA/sTD-DF
   Ed Valeev, F. Pavosevic, A. Kumar             : LibInt (2-el integral package), F12 methods
   Garnet Chan, S. Sharma, J. Yang, R. Olivares  : DMRG
   Ulf Ekstrom                                   : XCFun DFT Library
   Mihaly Kallay                                 : mrcc  (arbitrary order and MRCC methods)
   Jiri Pittner, Ondrej Demel                    : Mk-CCSD
   Frank Weinhold                                : gennbo (NPA and NBO analysis)
   Christopher J. Cramer and Donald G. Truhlar   : smd solvation model
   Lars Goerigk                                  : TD-DFT with DH, B97 family of functionals
   V. Asgeirsson, H. Jonsson                     : NEB implementation
   FAccTs GmbH                                   : IRC, NEB, NEB-TS, DLPNO-Multilevel, CI-OPT
                                                   MM, QMMM, 2- and 3-layer-ONIOM, Crystal-QMMM,
                                                   LR-CPCM, SF, NACMEs, symmetry and pop. for TD-DFT,
                                                   nearIR, NL-DFT gradient (VV10), updates on ESD,
                                                   ML-optimized integration grids
   S Lehtola, MJT Oliveira, MAL Marques          : LibXC Library
   Liviu Ungur et al                             : ANISO software


 Your calculation uses the libint2 library for the computation of 2-el integrals
 For citations please refer to: http://libint.valeyev.net

 Your ORCA version has been built with support for libXC version: 5.1.0
 For citations please refer to: https://tddft.org/programs/libxc/

 This ORCA versions uses:
   CBLAS   interface :  Fast vector & matrix operations
   LAPACKE interface :  Fast linear algebra routines
   SCALAPACK package :  Parallel linear algebra routines
   Shared memory     :  Shared parallel matrices
   BLAS/LAPACK       :  OpenBLAS 0.3.15  USE64BITINT DYNAMIC_ARCH NO_AFFINITY Haswell SINGLE_THREADED
        Core in use  :  Haswell
   Copyright (c) 2011-2014, The OpenBLAS Project


Your calculation utilizes the atom-pairwise dispersion correction
with the Becke-Johnson damping scheme (D3BJ)
Cite in your paper:
S.Grimme, S.Ehrlich, L.Goerigk, J Comput Chem, (2011), 32, 1456–1465 
S.Grimme, J.Antony, S.Ehrlich and H.Krieg, J.Chem.Phys., 132, (2010), 154104 
   

================================================================================

----- Orbital basis set information -----
Your calculation utilizes the basis: def2-TZVP
   F. Weigend and R. Ahlrichs, Phys. Chem. Chem. Phys. 7, 3297 (2005).

----- AuxJ basis set information -----
Your calculation utilizes the auxiliary basis: def2/J
   F. Weigend, Phys. Chem. Chem. Phys. 8, 1057 (2006).

================================================================================
                                        WARNINGS
                       Please study these warnings very carefully!
================================================================================


WARNING: your system is open-shell and RHF/RKS was chosen
  ===> : WILL SWITCH to UHF/UKS


WARNING: The environment variable RSH_COMMAND is not set!
  ===> : All Displacements for the Numerical Hessian or Gradient calculation
         will be started on localhost

INFO   : the flag for use of the SHARK integral package has been found!

Your calculation utilizes the atom-pairwise dispersion correction
with the Becke-Johnson damping scheme (D3BJ)
Cite in your paper:
S.Grimme, S.Ehrlich, L.Goerigk, J Comput Chem, (2011), 32, 1456–1465 
S.Grimme, J.Antony, S.Ehrlich and H.Krieg, J.Chem.Phys., 132, (2010), 154104 
   

================================================================================

----- Orbital basis set information -----
Your calculation utilizes the basis: def2-TZVP
   F. Weigend and R. Ahlrichs, Phys. Chem. Chem. Phys. 7, 3297 (2005).

----- AuxJ basis set information -----
Your calculation utilizes the auxiliary basis: def2/J
   F. Weigend, Phys. Chem. Chem. Phys. 8, 1057 (2006).

================================================================================
                                        WARNINGS
                       Please study these warnings very carefully!
================================================================================


WARNING: MOInp is set but Guess=PModel. MOInp will be ignored!
         To read the initial guess from a file you must also specify
         'MORead' in the simple input or 'Guess MORead' in the %scf block


WARNING: The environment variable RSH_COMMAND is not set!
  ===> : All Displacements for the Numerical Hessian or Gradient calculation
         will be started on localhost

INFO   : the flag for use of the SHARK integral package has been found!

Your calculation utilizes the atom-pairwise dispersion correction
with the Becke-Johnson damping scheme (D3BJ)
Cite in your paper:
S.Grimme, S.Ehrlich, L.Goerigk, J Comput Chem, (2011), 32, 1456–1465 
S.Grimme, J.Antony, S.Ehrlich and H.Krieg, J.Chem.Phys., 132, (2010), 154104 
   

================================================================================

----- Orbital basis set information -----
Your calculation utilizes the basis: def2-TZVP
   F. Weigend and R. Ahlrichs, Phys. Chem. Chem. Phys. 7, 3297 (2005).

----- AuxJ basis set information -----
Your calculation utilizes the auxiliary basis: def2/J
   F. Weigend, Phys. Chem. Chem. Phys. 8, 1057 (2006).

================================================================================
                                        WARNINGS
                       Please study these warnings very carefully!
================================================================================


WARNING: MOInp is set but Guess=PModel. MOInp will be ignored!
         To read the initial guess from a file you must also specify
         'MORead' in the simple input or 'Guess MORead' in the %scf block


WARNING: The environment variable RSH_COMMAND is not set!
  ===> : All Displacements for the Numerical Hessian or Gradient calculation
         will be started on localhost

INFO   : the flag for use of the SHARK integral package has been found!

Your calculation utilizes the atom-pairwise dispersion correction
with the Becke-Johnson damping scheme (D3BJ)
Cite in your paper:
S.Grimme, S.Ehrlich, L.Goerigk, J Comput Chem, (2011), 32, 1456–1465 
S.Grimme, J.Antony, S.Ehrlich and H.Krieg, J.Chem.Phys., 132, (2010), 154104 
   

================================================================================

----- Orbital basis set information -----
Your calculation utilizes the basis: def2-TZVP
   F. Weigend and R. Ahlrichs, Phys. Chem. Chem. Phys. 7, 3297 (2005).

----- AuxJ basis set information -----
Your calculation utilizes the auxiliary basis: def2/J
   F. Weigend, Phys. Chem. Chem. Phys. 8, 1057 (2006).

================================================================================
                                        WARNINGS
                       Please study these warnings very carefully!
================================================================================


WARNING: MOInp is set but Guess=PModel. MOInp will be ignored!
         To read the initial guess from a file you must also specify
         'MORead' in the simple input or 'Guess MORead' in the %scf block


WARNING: The environment variable RSH_COMMAND is not set!
  ===> : All Displacements for the Numerical Hessian or Gradient calculation
         will be started on localhost

INFO   : the flag for use of the SHARK integral package has been found!

Your calculation utilizes the atom-pairwise dispersion correction
with the Becke-Johnson damping scheme (D3BJ)
Cite in your paper:
S.Grimme, S.Ehrlich, L.Goerigk, J Comput Chem, (2011), 32, 1456–1465 
S.Grimme, J.Antony, S.Ehrlich and H.Krieg, J.Chem.Phys., 132, (2010), 154104 
   

================================================================================

----- Orbital basis set information -----
Your calculation utilizes the basis: def2-TZVP
   F. Weigend and R. Ahlrichs, Phys. Chem. Chem. Phys. 7, 3297 (2005).

----- AuxJ basis set information -----
Your calculation utilizes the auxiliary basis: def2/J
   F. Weigend, Phys. Chem. Chem. Phys. 8, 1057 (2006).

================================================================================
                                        WARNINGS
                       Please study these warnings very carefully!
================================================================================


WARNING: MOInp is set but Guess=PModel. MOInp will be ignored!
         To read the initial guess from a file you must also specify
         'MORead' in the simple input or 'Guess MORead' in the %scf block


WARNING: The environment variable RSH_COMMAND is not set!
  ===> : All Displacements for the Numerical Hessian or Gradient calculation
         will be started on localhost

INFO   : the flag for use of the SHARK integral package has been found!

================================================================================
                                       INPUT FILE
================================================================================
NAME = ex.inp
|  1> ! PBE D3 def2-TZVP opt numfreq PModel NOAUTOSTART cpcm(water)
|  2> %pal nprocs=16 end
|  3> %geom maxiter=150 end
|  4> %base "neutral"
|  5> *xyz 0 2
|  6>   C   -0.00614811122097     -0.82893725347370     -0.58637597993230
|  7>   C   -1.14929901630093      1.64591132114548     -0.03623256988423
|  8>   C   -1.36626820684419     -0.75933305479714     -0.26802991529164
|  9>   C   0.79635801065973      0.31847720682812     -0.64134162869264
| 10>   C   0.20696523630729      1.55888011551089     -0.35437143961488
| 11>   C   -1.93817357193681      0.49727326607171     -0.00194116026457
| 12>   O   -3.30285925786650      0.53669305558520      0.25933690594438
| 13>   O   -2.09284251428740     -1.91894843827304     -0.24948920632491
| 14>   C   2.27112761298104      0.21526243435128     -0.92965695912320
| 15>   C   3.12942289359429      0.18915258724946      0.35509320829840
| 16>   N   2.90462445052562     -0.94826218713390      1.25499734410263
| 17>   H   0.42106523992175     -1.81109214623843     -0.80073729481720
| 18>   H   -1.61204816600286      2.61366059065739      0.17360818225851
| 19>   H   0.81063528123992      2.46819069128955     -0.38426178812575
| 20>   H   -3.56293536961020      1.44861954475841      0.50105687780195
| 21>   H   -2.97203732390215     -1.75532859332853      0.18385129347479
| 22>   H   2.59294181972440      1.07409221880947     -1.54128293739017
| 23>   H   2.47846515572921     -0.69850637576889     -1.50940094094289
| 24>   H   4.19227657316933      0.19375649827994      0.06602099345542
| 25>   H   2.94827613529055      1.11620883591797      0.92282187836396
| 26>   H   3.07026670413899     -1.81875806325908      0.74043514254376
| 27>   H   1.91434570946786     -0.97656271132969      1.51747314137256
| 28>   Cu  -4.37737036377797     -0.84897520485248      1.70395034878802
| 29> *
| 30> 
| 31> $new_job
| 32> 
| 33> ! PBE D3 def2-TZVP opt numfreq PModel NOAUTOSTART cpcm(water)
| 34> %pal nprocs=16 end
| 35> %geom maxiter=150 end
| 36> %base "protonated"
| 37> *xyz 1 2
| 38>   C   -1.19045091050516     -1.61001719193666      0.22247098560725
| 39>   C   -0.09346156905618      0.75622120522927     -0.74360272413125
| 40>   C   -1.99755082385788     -0.48280823035206      0.07506023732300
| 41>   C   0.16075343309674     -1.56004346867937     -0.11992285072186
| 42>   C   0.72281558197282     -0.37418512524661     -0.61320619183504
| 43>   C   -1.45011611417719      0.72199909193611     -0.40346636282856
| 44>   O   -3.35438093820171     -0.49880613832089      0.36082548523826
| 45>   O   -2.19072743430071      1.85718678371313     -0.57027320335463
| 46>   C   2.19371031763989     -0.30217546040071     -0.95402208567067
| 47>   C   3.09352443135369     -0.28721355490285      0.27879266618278
| 48>   N   2.81914475838694      0.92161633730609      1.12909844362663
| 49>   H   1.82856162779316      0.95864403031795      1.41250752965794
| 50>   H   3.38939626726589      0.91750570559803      1.98497876354908
| 51>   H   3.02662711872152      1.79341821795020      0.62149162754493
| 52>   H   -1.63526959705827     -2.53602632289272      0.59493302114466
| 53>   H   0.31942866301738      1.69534566696451     -1.11926708005918
| 54>   H   0.77779891074600     -2.45355475871955     -0.00752684454367
| 55>   H   -3.59843026607171     -1.36194037465738      0.75292956541960
| 56>   H   -3.06663255357874      1.76123827880520     -0.10623709076044
| 57>   H   2.39973251007108      0.58860923816196     -1.56679618434151
| 58>   H   2.49192282954522     -1.17909032068626     -1.54819797233442
| 59>   H   2.91999999473734     -1.16220490623088      0.91680843795774
| 60>   H   4.15411537826612     -0.24571003608994      0.00420345900569
| 61>   Cu  -4.45812964780624      1.12140837213344      1.51848307432370
| 62> *
| 63> 
| 64> $new_job
| 65> 
| 66> ! PBE D3 def2-TZVP opt numfreq PModel NOAUTOSTART cpcm(water)
| 67> %pal nprocs=16 end
| 68> %geom maxiter=150 end
| 69> %base "deprotonated"
| 70> *xyz -1 2
| 71>   O   2.33277325832595     -1.91989475780160     -0.11089043041771
| 72>   O   3.50644693694394      0.70277950512916     -0.36082854734601
| 73>   N   -4.30933454679467     -0.33893902731864     -0.47480878683905
| 74>   C   -2.07563547652142      0.06313041655697      0.68617921992090
| 75>   C   -0.59508544870584      0.23246494416506      0.45764974699439
| 76>   C   -2.85830486087469     -0.16048517461733     -0.62398434158302
| 77>   C   0.23884496762443     -0.88705621057496      0.29610707240540
| 78>   C   -0.00955852843531      1.49835837267362      0.33036852526434
| 79>   C   1.60133458895818     -0.76382449019200      0.02039447385728
| 80>   C   1.35467742068582      1.63523405171372      0.05364708306187
| 81>   C   2.21193555412654      0.52419788081435     -0.11152827964225
| 82>   H   -2.48442327698012      0.95698664923591      1.18629164308074
| 83>   H   -2.26711980236148     -0.79714069900470      1.35030616893922
| 84>   H   -2.45149301763608     -1.04862007607923     -1.13434970514544
| 85>   H   -2.68194343519972      0.69629915592036     -1.29470898524179
| 86>   H   -0.17547452380119     -1.89546616388666      0.39038392878173
| 87>   H   -0.62667672150786      2.39322858580915      0.45122437545116
| 88>   H   1.79980450114113      2.62973023087410     -0.03669565497382
| 89>   H   -4.69622141868181      0.47759919859376      0.00832812922532
| 90>   H   -4.48344170623304     -1.12896006258043      0.15408609649822
| 91>   H   3.28190553676043     -1.66231998852770     -0.32760686144461
| 92>   Cu  4.90885034816680     -0.54958357290292     -0.78193044884687
| 93> *
| 94> 
| 95> $new_job
| 96> 
| 97> ! PBE D3 def2-TZVP opt numfreq PModel NOAUTOSTART cpcm(water)
| 98> %pal nprocs=16 end
| 99> %geom maxiter=150 end
|100> %base "2x_deprotonated"
|101> *xyz -2 2
|102>   O   -2.28203318375591     -2.00211639444840      0.23779352929311
|103>   O   -3.35665429598639      0.44702762076745     -0.51486727134538
|104>   N   2.98174561568235      0.31385824561540     -1.41562206789812
|105>   C   2.14335500782816      0.04571416137956      0.97289398552557
|106>   C   0.67964413701785      0.17884413954229      0.62876060502267
|107>   C   2.98763293518891     -0.50758306422708     -0.19416984724197
|108>   C   -0.15656001564080     -0.95968757621869      0.61353933294477
|109>   C   0.12651736587763      1.40463740290649      0.24585370599693
|110>   C   -1.51532602056799     -0.92070940489485      0.23737273752103
|111>   C   -1.22809747985746      1.48970101261184     -0.13485310421863
|112>   C   -2.08103745349170      0.36777733815708     -0.15879185549804
|113>   H   2.55188202885974      1.03039180150544      1.25915945230736
|114>   H   2.27799396968453     -0.62443788791263      1.84096781853058
|115>   H   2.61359361584911     -1.51109107188254     -0.45710459493490
|116>   H   4.03370943230770     -0.63066068769020      0.13093471486757
|117>   H   0.25721356104570     -1.93168086852536      0.90958196498812
|118>   H   0.74947820985840      2.30444908576594      0.24858091424495
|119>   H   -1.65224275460234      2.45734736894111     -0.42520483830198
|120>   H   3.38457099205747      1.22966408620171     -1.19038713776167
|121>   H   2.00210116896980      0.51699431230589     -1.64698690925163
|122>   Cu  -4.18135664032477     -1.45570233190042     -0.39561391479035
|123> *
|124> 
|125> $new_job
|126> 
|127> ! PBE D3 def2-TZVP opt numfreq PModel NOAUTOSTART cpcm(water)
|128> %pal nprocs=16 end
|129> %geom maxiter=150 end
|130> %base "zwitterione"
|131> *xyz 0 2
|132>   O   2.68755082528105     -2.28815399110541     -0.03157657258383
|133>   C   2.03502612844716     -1.09605163074462     -0.21076055384340
|134>   C   0.66854614121724     -1.13854305172391     -0.47960190741296
|135>   C   -0.08449526133267      0.03170193935195     -0.68267110336279
|136>   C   -1.57381065474072     -0.04248097334081     -0.92184125819251
|137>   C   -2.35165829126616     -0.39875346047968      0.34380554166476
|138>   N   -2.06215190673777      0.60499475967792      1.42364462857824
|139>   H   -2.45828483427382      0.32214607937921      2.32918110868078
|140>   H   -1.04079538574823      0.71481865832163      1.53471144227314
|141>   H   -2.44544243282360      1.53144675654679      1.19008738024477
|142>   C   0.58092670142360      1.26125830363259     -0.60138735385228
|143>   C   1.95266278056690      1.31578205605217     -0.33457604822112
|144>   C   2.73332290195264      0.15579174109992     -0.13111098540628
|145>   O   4.03169412446364      0.25183081773964      0.11413622569982
|146>   H   3.65330695277203     -2.08716674097009      0.17303404279532
|147>   H   0.18587911216113     -2.11880652733346     -0.53352785912151
|148>   H   -1.94088155461824      0.91926152576955     -1.31350750050006
|149>   H   -1.82087816144360     -0.81129304136764     -1.67036211032768
|150>   H   -3.43636629966037     -0.39663127668109      0.18367287791711
|151>   H   -2.04462848748229     -1.37446039940261      0.73975191774066
|152>   H   0.02249118613095      2.18848669512896     -0.75675832119526
|153>   H   2.46396970883309      2.28011514638158     -0.28023957878344
|154>   Cu  5.39053587287804     -1.08381147993257      0.42901790620852
|155> *
|156> 
|157>                          ****END OF INPUT****
================================================================================


                 $$$$$$$$$$$$$$$$$$$$$$$$$$$$$$$$$$$$$$$$$$$$$$ 
                 $ THERE ARE  5 JOBS TO BE PROCESSED THIS RUN $
                 $$$$$$$$$$$$$$$$$$$$$$$$$$$$$$$$$$$$$$$$$$$$$$ 




                 $$$$$$$$$$$$$$$$  JOB NUMBER  1 $$$$$$$$$$$$$$


                       *****************************
                       * Geometry Optimization Run *
                       *****************************

Geometry optimization settings:
Update method            Update   .... BFGS
Choice of coordinates    CoordSys .... Z-matrix Internals
Initial Hessian          InHess   .... Almoef's Model

Convergence Tolerances:
Energy Change            TolE     ....  5.0000e-06 Eh
Max. Gradient            TolMAXG  ....  3.0000e-04 Eh/bohr
RMS Gradient             TolRMSG  ....  1.0000e-04 Eh/bohr
Max. Displacement        TolMAXD  ....  4.0000e-03 bohr
RMS Displacement         TolRMSD  ....  2.0000e-03 bohr
Strict Convergence                ....  False
------------------------------------------------------------------------------
                        ORCA OPTIMIZATION COORDINATE SETUP
------------------------------------------------------------------------------

The optimization will be done in new redundant internal coordinates
Making redundant internal coordinates   ...  (new redundants) done
Evaluating the initial hessian          ...  (Almloef) done
Evaluating the coordinates              ...  done
Calculating the B-matrix                .... done
Calculating the G-matrix                .... done
Diagonalizing the G-matrix              .... done
Small eigenvalue found = 1.478e-02
Small eigenvalue found = 2.734e-02
The first mode is                       ....   48
The number of degrees of freedom        ....   63

    -----------------------------------------------------------------
                    Redundant Internal Coordinates


    -----------------------------------------------------------------
         Definition                    Initial Value    Approx d2E/dq
    -----------------------------------------------------------------
      1. B(C   2,C   0)                  1.3986         0.605339   
      2. B(C   3,C   0)                  1.4013         0.599426   
      3. B(C   4,C   3)                  1.4030         0.595717   
      4. B(C   4,C   1)                  1.3958         0.611639   
      5. B(C   5,C   2)                  1.4060         0.589052   
      6. B(C   5,C   1)                  1.3939         0.615981   
      7. B(O   6,C   5)                  1.3900         0.559533   
      8. B(O   7,C   2)                  1.3686         0.605450   
      9. B(C   8,C   3)                  1.5062         0.407665   
     10. B(C   9,C   8)                  1.5453         0.353164   
     11. B(N  10,C   9)                  1.4677         0.420676   
     12. B(H  11,C   0)                  1.0923         0.357088   
     13. B(H  12,C   1)                  1.0930         0.356118   
     14. B(H  13,C   4)                  1.0919         0.357649   
     15. B(H  14,O   6)                  0.9786         0.485596   
     16. B(H  15,O   7)                  0.9937         0.459326   
     17. B(H  16,C   8)                  1.1024         0.344091   
     18. B(H  17,C   8)                  1.1018         0.344765   
     19. B(H  18,C   9)                  1.1015         0.345239   
     20. B(H  19,C   9)                  1.1021         0.344479   
     21. B(H  20,N  10)                  1.0247         0.409987   
     22. B(H  21,N  10)                  1.0249         0.409713   
     23. B(Cu 22,O   6)                  2.2719         0.221807   
     24. A(C   2,C   0,C   3)          121.6756         0.429591   
     25. A(C   3,C   0,H  11)          120.3036         0.350403   
     26. A(C   2,C   0,H  11)          118.0195         0.350985   
     27. A(C   4,C   1,H  12)          120.6864         0.351438   
     28. A(C   5,C   1,H  12)          119.0311         0.351858   
     29. A(C   4,C   1,C   5)          120.2754         0.432501   
     30. A(C   0,C   2,C   5)          118.8886         0.428247   
     31. A(C   5,C   2,O   7)          122.5995         0.425470   
     32. A(C   0,C   2,O   7)          118.5032         0.427553   
     33. A(C   4,C   3,C   8)          120.7349         0.400001   
     34. A(C   0,C   3,C   8)          120.8058         0.400438   
     35. A(C   0,C   3,C   4)          118.3811         0.428358   
     36. A(C   1,C   4,C   3)          120.6607         0.429910   
     37. A(C   3,C   4,H  13)          119.8968         0.350129   
     38. A(C   1,C   4,H  13)          119.4416         0.351693   
     39. A(C   1,C   5,O   6)          122.4726         0.422878   
     40. A(C   1,C   5,C   2)          120.1076         0.429588   
     41. A(C   2,C   5,O   6)          117.4033         0.419517   
     42. A(C   5,O   6,H  14)          109.4977         0.359445   
     43. A(H  14,O   6,Cu 22)          106.5948         0.342938   
     44. A(C   5,O   6,Cu 22)          124.5104         0.393229   
     45. A(C   2,O   7,H  15)          109.6394         0.360872   
     46. A(C   9,C   8,H  17)          108.5974         0.319068   
     47. A(C   3,C   8,C   9)          112.6959         0.365292   
     48. A(C   3,C   8,H  17)          109.9857         0.326664   
     49. A(H  16,C   8,H  17)          107.4114         0.286814   
     50. A(C   9,C   8,H  16)          108.1977         0.318966   
     51. A(C   3,C   8,H  16)          109.7944         0.326558   
     52. A(N  10,C   9,H  19)          108.1116         0.326346   
     53. A(C   8,C   9,H  19)          108.8313         0.319025   
     54. A(N  10,C   9,H  18)          108.1768         0.326464   
     55. A(C   8,C   9,H  18)          108.5232         0.319139   
     56. A(C   8,C   9,N  10)          115.9630         0.364974   
     57. A(H  18,C   9,H  19)          106.8751         0.286926   
     58. A(H  20,N  10,H  21)          105.1500         0.298058   
     59. A(C   9,N  10,H  21)          109.0522         0.332971   
     60. A(C   9,N  10,H  20)          109.0080         0.333007   
     61. D(O   7,C   2,C   0,C   3)    179.1817         0.025286   
     62. D(O   7,C   2,C   0,H  11)     -0.4145         0.025286   
     63. D(C   5,C   2,C   0,C   3)      0.2247         0.025286   
     64. D(C   5,C   2,C   0,H  11)   -179.3715         0.025286   
     65. D(C   4,C   3,C   0,H  11)   -179.7957         0.024768   
     66. D(C   8,C   3,C   0,C   2)    177.4252         0.024768   
     67. D(C   4,C   3,C   0,C   2)      0.6172         0.024768   
     68. D(C   8,C   3,C   0,H  11)     -2.9877         0.024768   
     69. D(H  13,C   4,C   1,C   5)    179.5646         0.025845   
     70. D(H  13,C   4,C   1,H  12)      0.5457         0.025845   
     71. D(C   1,C   4,C   3,C   0)     -0.6743         0.024446   
     72. D(C   1,C   4,C   3,C   8)   -177.4846         0.024446   
     73. D(C   3,C   4,C   1,H  12)   -179.1318         0.025845   
     74. D(H  13,C   4,C   3,C   0)    179.6497         0.024446   
     75. D(C   3,C   4,C   1,C   5)     -0.1129         0.025845   
     76. D(H  13,C   4,C   3,C   8)      2.8393         0.024446   
     77. D(O   6,C   5,C   2,O   7)     -1.3823         0.023875   
     78. D(O   6,C   5,C   2,C   0)    177.5298         0.023875   
     79. D(C   1,C   5,C   2,O   7)   -179.9371         0.023875   
     80. D(O   6,C   5,C   1,H  12)      1.5323         0.026235   
     81. D(C   1,C   5,C   2,C   0)     -1.0251         0.023875   
     82. D(O   6,C   5,C   1,C   4)   -177.5027         0.026235   
     83. D(C   2,C   5,C   1,H  12)   -179.9885         0.026235   
     84. D(C   2,C   5,C   1,C   4)      0.9765         0.026235   
     85. D(Cu 22,O   6,C   5,C   2)     47.6160         0.025001   
     86. D(Cu 22,O   6,C   5,C   1)   -133.8659         0.025001   
     87. D(H  14,O   6,C   5,C   2)    175.2865         0.025001   
     88. D(H  14,O   6,C   5,C   1)     -6.1953         0.025001   
     89. D(H  15,O   7,C   2,C   5)    -13.7787         0.026805   
     90. D(H  15,O   7,C   2,C   0)    167.3052         0.026805   
     91. D(C   9,C   8,C   3,C   0)    -95.3615         0.012314   
     92. D(H  17,C   8,C   3,C   4)   -157.3006         0.012314   
     93. D(H  17,C   8,C   3,C   0)     25.9667         0.012314   
     94. D(H  16,C   8,C   3,C   4)    -39.3120         0.012314   
     95. D(H  16,C   8,C   3,C   0)    143.9553         0.012314   
     96. D(C   9,C   8,C   3,C   4)     81.3712         0.012314   
     97. D(H  19,C   9,C   8,H  17)    178.2756         0.010035   
     98. D(H  19,C   9,C   8,H  16)     61.9830         0.010035   
     99. D(H  19,C   9,C   8,C   3)    -59.6100         0.010035   
    100. D(H  18,C   9,C   8,H  17)     62.3170         0.010035   
    101. D(H  18,C   9,C   8,H  16)    -53.9756         0.010035   
    102. D(H  18,C   9,C   8,C   3)   -175.5687         0.010035   
    103. D(N  10,C   9,C   8,H  17)    -59.6256         0.010035   
    104. D(N  10,C   9,C   8,H  16)   -175.9182         0.010035   
    105. D(N  10,C   9,C   8,C   3)     62.4887         0.010035   
    106. D(H  21,N  10,C   9,H  19)     65.7487         0.015090   
    107. D(H  21,N  10,C   9,H  18)   -178.8567         0.015090   
    108. D(H  21,N  10,C   9,C   8)    -56.7305         0.015090   
    109. D(H  20,N  10,C   9,H  19)   -179.9581         0.015090   
    110. D(H  20,N  10,C   9,H  18)    -64.5635         0.015090   
    111. D(H  20,N  10,C   9,C   8)     57.5627         0.015090   
    -----------------------------------------------------------------

Number of atoms                         .... 23
Number of degrees of freedom            .... 111

         *************************************************************
         *                GEOMETRY OPTIMIZATION CYCLE   1            *
         *************************************************************
---------------------------------
CARTESIAN COORDINATES (ANGSTROEM)
---------------------------------
  C     -0.006148   -0.828937   -0.586376
  C     -1.149299    1.645911   -0.036233
  C     -1.366268   -0.759333   -0.268030
  C      0.796358    0.318477   -0.641342
  C      0.206965    1.558880   -0.354371
  C     -1.938174    0.497273   -0.001941
  O     -3.302859    0.536693    0.259337
  O     -2.092843   -1.918948   -0.249489
  C      2.271128    0.215262   -0.929657
  C      3.129423    0.189153    0.355093
  N      2.904624   -0.948262    1.254997
  H      0.421065   -1.811092   -0.800737
  H     -1.612048    2.613661    0.173608
  H      0.810635    2.468191   -0.384262
  H     -3.562935    1.448620    0.501057
  H     -2.972037   -1.755329    0.183851
  H      2.592942    1.074092   -1.541283
  H      2.478465   -0.698506   -1.509401
  H      4.192277    0.193756    0.066021
  H      2.948276    1.116209    0.922822
  H      3.070267   -1.818758    0.740435
  H      1.914346   -0.976563    1.517473
  Cu    -4.377370   -0.848975    1.703950

----------------------------
CARTESIAN COORDINATES (A.U.)
----------------------------
  NO LB      ZA    FRAG     MASS         X           Y           Z
   0 C     6.0000    0    12.011   -0.011618   -1.566464   -1.108090
   1 C     6.0000    0    12.011   -2.171860    3.110322   -0.068470
   2 C     6.0000    0    12.011   -2.581873   -1.434932   -0.506503
   3 C     6.0000    0    12.011    1.504899    0.601835   -1.211960
   4 C     6.0000    0    12.011    0.391108    2.945856   -0.669665
   5 C     6.0000    0    12.011   -3.662617    0.939710   -0.003668
   6 O     8.0000    0    15.999   -6.241499    1.014203    0.490076
   7 O     8.0000    0    15.999   -3.954899   -3.626287   -0.471466
   8 C     6.0000    0    12.011    4.291809    0.406787   -1.756797
   9 C     6.0000    0    12.011    5.913752    0.357447    0.671029
  10 N     7.0000    0    14.007    5.488945   -1.791956    2.371601
  11 H     1.0000    0     1.008    0.795698   -3.422468   -1.513174
  12 H     1.0000    0     1.008   -3.046330    4.939103    0.328072
  13 H     1.0000    0     1.008    1.531879    4.664204   -0.726150
  14 H     1.0000    0     1.008   -6.732972    2.737494    0.946860
  15 H     1.0000    0     1.008   -5.616337   -3.317090    0.347429
  16 H     1.0000    0     1.008    4.899950    2.029740   -2.912603
  17 H     1.0000    0     1.008    4.683620   -1.319986   -2.852354
  18 H     1.0000    0     1.008    7.922255    0.366147    0.124762
  19 H     1.0000    0     1.008    5.571434    2.109329    1.743881
  20 H     1.0000    0     1.008    5.801963   -3.436955    1.399220
  21 H     1.0000    0     1.008    3.617589   -1.845436    2.867609
  22 Cu   29.0000    0    63.550   -8.272031   -1.604331    3.220000

--------------------------------
INTERNAL COORDINATES (ANGSTROEM)
--------------------------------
 C      0   0   0     0.000000000000     0.00000000     0.00000000
 C      1   0   0     2.781065844366     0.00000000     0.00000000
 C      1   2   0     1.398612039082    60.72194567     0.00000000
 C      1   2   3     1.401284140319    60.95429048   179.72269536
 C      2   1   3     1.395793499802    60.00121091   179.93729051
 C      2   1   3     1.393868123915    60.27579920   359.48180437
 O      6   2   1     1.390031355426   122.47256351   182.04050837
 O      3   1   2     1.368561953190   118.50317089   179.46654388
 C      4   1   2     1.506228534768   120.80580095   177.14098813
 C      9   4   1     1.545294633890   112.69592883   264.63852312
 N     10   9   4     1.467676450254   115.96301029    62.48874783
 H      1   2   3     1.092286708742   178.73715528     4.77162088
 H      2   1   3     1.093027248265   179.17746889   326.78317655
 H      5   2   1     1.091859276329   119.44163896   180.02266828
 H      7   6   2     0.978610264789   109.49772579   353.80466955
 H      8   3   1     0.993749946254   109.63943772   167.30522052
 H      9   4   1     1.102378936494   109.79438405   143.95529365
 H      9   4   1     1.101846350195   109.98570584    25.96669419
 H     10   9   4     1.101472598650   108.52315762   184.43134262
 H     10   9   4     1.102072265804   108.83127154   300.38998699
 H     11  10   9     1.024682724460   109.00802939    57.56267614
 H     11  10   9     1.024864112365   109.05222347   303.26949666
 Cu    16   8   3     2.259897908254   155.43932130   321.47324021

---------------------------
INTERNAL COORDINATES (A.U.)
---------------------------
 C      0   0   0     0.000000000000     0.00000000     0.00000000
 C      1   0   0     5.255452806254     0.00000000     0.00000000
 C      1   2   0     2.642993721469    60.72194567     0.00000000
 C      1   2   3     2.648043261010    60.95429048   179.72269536
 C      2   1   3     2.637667454134    60.00121091   179.93729051
 C      2   1   3     2.634029021002    60.27579920   359.48180437
 O      6   2   1     2.626778579319   122.47256351   182.04050837
 O      3   1   2     2.586207288834   118.50317089   179.46654388
 C      4   1   2     2.846359425809   120.80580095   177.14098813
 C      9   4   1     2.920183654270   112.69592883   264.63852312
 N     10   9   4     2.773506544185   115.96301029    62.48874783
 H      1   2   3     2.064122739245   178.73715528     4.77162088
 H      2   1   3     2.065522156135   179.17746889   326.78317655
 H      5   2   1     2.063315009044   119.44163896   180.02266828
 H      7   6   2     1.849305392295   109.49772579   353.80466955
 H      8   3   1     1.877915244019   109.63943772   167.30522052
 H      9   4   1     2.083194285777   109.79438405   143.95529365
 H      9   4   1     2.082187843529   109.98570584    25.96669419
 H     10   9   4     2.081481555467   108.52315762   184.43134262
 H     10   9   4     2.082614762159   108.83127154   300.38998699
 H     11  10   9     1.936369723389   109.00802939    57.56267614
 H     11  10   9     1.936712496854   109.05222347   303.26949666
 Cu    16   8   3     4.270588137222   155.43932130   321.47324021

---------------------
BASIS SET INFORMATION
---------------------
There are 5 groups of distinct atoms

 Group   1 Type C   : 11s6p2d1f contracted to 5s3p2d1f pattern {62111/411/11/1}
 Group   2 Type O   : 11s6p2d1f contracted to 5s3p2d1f pattern {62111/411/11/1}
 Group   3 Type N   : 11s6p2d1f contracted to 5s3p2d1f pattern {62111/411/11/1}
 Group   4 Type H   : 5s1p contracted to 3s1p pattern {311/1}
 Group   5 Type Cu  : 17s11p7d1f contracted to 6s4p4d1f pattern {842111/6311/4111/1}

Atom   0C    basis set group =>   1
Atom   1C    basis set group =>   1
Atom   2C    basis set group =>   1
Atom   3C    basis set group =>   1
Atom   4C    basis set group =>   1
Atom   5C    basis set group =>   1
Atom   6O    basis set group =>   2
Atom   7O    basis set group =>   2
Atom   8C    basis set group =>   1
Atom   9C    basis set group =>   1
Atom  10N    basis set group =>   3
Atom  11H    basis set group =>   4
Atom  12H    basis set group =>   4
Atom  13H    basis set group =>   4
Atom  14H    basis set group =>   4
Atom  15H    basis set group =>   4
Atom  16H    basis set group =>   4
Atom  17H    basis set group =>   4
Atom  18H    basis set group =>   4
Atom  19H    basis set group =>   4
Atom  20H    basis set group =>   4
Atom  21H    basis set group =>   4
Atom  22Cu   basis set group =>   5
---------------------------------
AUXILIARY/J BASIS SET INFORMATION
---------------------------------
There are 5 groups of distinct atoms

 Group   1 Type C   : 12s5p4d2f1g contracted to 6s4p3d1f1g pattern {711111/2111/211/2/1}
 Group   2 Type O   : 12s5p4d2f1g contracted to 6s4p3d1f1g pattern {711111/2111/211/2/1}
 Group   3 Type N   : 12s5p4d2f1g contracted to 6s4p3d1f1g pattern {711111/2111/211/2/1}
 Group   4 Type H   : 5s2p1d contracted to 3s1p1d pattern {311/2/1}
 Group   5 Type Cu  : 19s5p5d3f3g contracted to 8s5p4d3f3g pattern {121111111/11111/2111/111/111}

Atom   0C    basis set group =>   1
Atom   1C    basis set group =>   1
Atom   2C    basis set group =>   1
Atom   3C    basis set group =>   1
Atom   4C    basis set group =>   1
Atom   5C    basis set group =>   1
Atom   6O    basis set group =>   2
Atom   7O    basis set group =>   2
Atom   8C    basis set group =>   1
Atom   9C    basis set group =>   1
Atom  10N    basis set group =>   3
Atom  11H    basis set group =>   4
Atom  12H    basis set group =>   4
Atom  13H    basis set group =>   4
Atom  14H    basis set group =>   4
Atom  15H    basis set group =>   4
Atom  16H    basis set group =>   4
Atom  17H    basis set group =>   4
Atom  18H    basis set group =>   4
Atom  19H    basis set group =>   4
Atom  20H    basis set group =>   4
Atom  21H    basis set group =>   4
Atom  22Cu   basis set group =>   5


           ************************************************************
           *        Program running with 16 parallel MPI-processes    *
           *              working on a common directory               *
           ************************************************************
------------------------------------------------------------------------------
                           ORCA GTO INTEGRAL CALCULATION
                           -- RI-GTO INTEGRALS CHOSEN --
------------------------------------------------------------------------------
------------------------------------------------------------------------------
                   ___                                                        
                  /   \      - P O W E R E D   B Y -                         
                 /     \                                                     
                 |  |  |   _    _      __       _____    __    __             
                 |  |  |  | |  | |    /  \     |  _  \  |  |  /  |          
                  \  \/   | |  | |   /    \    | | | |  |  | /  /          
                 / \  \   | |__| |  /  /\  \   | |_| |  |  |/  /          
                |  |  |   |  __  | /  /__\  \  |    /   |      \           
                |  |  |   | |  | | |   __   |  |    \   |  |\   \          
                \     /   | |  | | |  |  |  |  | |\  \  |  | \   \       
                 \___/    |_|  |_| |__|  |__|  |_| \__\ |__|  \__/        
                                                                              
                      - O R C A' S   B I G   F R I E N D -                    
                                      &                                       
                       - I N T E G R A L  F E E D E R -                       
                                                                              
 v1 FN, 2020, v2 2021                                                         
------------------------------------------------------------------------------


Reading SHARK input file neutral.SHARKINP.tmp ... ok
----------------------
SHARK INTEGRAL PACKAGE
----------------------

Number of atoms                             ...     23
Number of basis functions                   ...    452
Number of shells                            ...    180
Maximum angular momentum                    ...      3
Integral batch strategy                     ... SHARK/LIBINT Hybrid
RI-J (if used) integral strategy            ... SPLIT-RIJ (Revised 2003 algorithm where possible)
Printlevel                                  ...      1
Contraction scheme used                     ... SEGMENTED contraction
Coulomb Range Separation                    ... NOT USED
Exchange Range Separation                   ... NOT USED
Finite Nucleus Model                        ... NOT USED
Auxiliary Coulomb fitting basis             ... AVAILABLE
   # of basis functions in Aux-J            ...    751
   # of shells in Aux-J                     ...    243
   Maximum angular momentum in Aux-J        ...      4
Auxiliary J/K fitting basis                 ... NOT available
Auxiliary Correlation fitting basis         ... NOT available
Auxiliary 'external' fitting basis          ... NOT available
Integral threshold                          ...     2.500000e-11
Primitive cut-off                           ...     2.500000e-12
Primitive pair pre-selection threshold      ...     2.500000e-12

Calculating pre-screening integrals         ... done (  0.1 sec) Dimension = 180
Organizing shell pair data                  ... done (  0.4 sec)
Shell pair information
Total number of shell pairs                 ...     16290
Shell pairs after pre-screening             ...     13305
Total number of primitive shell pairs       ...     52337
Primitive shell pairs kept                  ...     29540
          la=0 lb=0:   3563 shell pairs
          la=1 lb=0:   3745 shell pairs
          la=1 lb=1:   1014 shell pairs
          la=2 lb=0:   1976 shell pairs
          la=2 lb=1:   1055 shell pairs
          la=2 lb=2:    291 shell pairs
          la=3 lb=0:    871 shell pairs
          la=3 lb=1:    475 shell pairs
          la=3 lb=2:    252 shell pairs
          la=3 lb=3:     63 shell pairs

Calculating one electron integrals          ... done (  0.0 sec)
Calculating RI/J V-Matrix + Cholesky decomp.... done (  0.0 sec)
Calculating Nuclear repulsion               ... done (  0.0 sec) ENN=    891.266695334443 Eh

SHARK setup successfully completed in   0.8 seconds

Maximum memory used throughout the entire GTOINT-calculation: 29.7 MB


           ************************************************************
           *        Program running with 16 parallel MPI-processes    *
           *              working on a common directory               *
           ************************************************************
-------------------------------------------------------------------------------
                                 ORCA SCF
-------------------------------------------------------------------------------

------------
SCF SETTINGS
------------
Hamiltonian:
 Density Functional     Method          .... DFT(GTOs)
 Exchange Functional    Exchange        .... PBE
   PBE kappa parameter   XKappa         ....  0.804000
   PBE mue parameter    XMuePBE         ....  0.219520
 Correlation Functional Correlation     .... PBE
   PBE beta parameter  CBetaPBE         ....  0.066725
 LDA part of GGA corr.  LDAOpt          .... PW91-LDA
 Gradients option       PostSCFGGA      .... off
   Density functional embedding theory  .... OFF
   NL short-range parameter             ....  6.400000
 RI-approximation to the Coulomb term is turned on
   Number of AuxJ basis functions       .... 751


General Settings:
 Integral files         IntName         .... neutral
 Hartree-Fock type      HFTyp           .... UHF
 Total Charge           Charge          ....    0
 Multiplicity           Mult            ....    2
 Number of Electrons    NEL             ....  111
 Basis Dimension        Dim             ....  452
 Nuclear Repulsion      ENuc            ....    891.2666953344 Eh

Convergence Acceleration:
 DIIS                   CNVDIIS         .... on
   Start iteration      DIISMaxIt       ....    12
   Startup error        DIISStart       ....  0.200000
   # of expansion vecs  DIISMaxEq       ....     5
   Bias factor          DIISBfac        ....   1.050
   Max. coefficient     DIISMaxC        ....  10.000
 Trust-Rad. Augm. Hess. CNVTRAH         .... auto
   Auto Start mean grad. ratio tolernc. ....  1.125000
   Auto Start start iteration           ....    20
   Auto Start num. interpolation iter.  ....    10
   Max. Number of Micro iterations      ....    16
   Max. Number of Macro iterations      .... Maxiter - #DIIS iter
   Number of Davidson start vectors     ....     2
   Converg. threshold I  (grad. norm)   ....   1.000e-05
   Converg. threshold II (energy diff.) ....   1.000e-08
   Grad. Scal. Fac. for Micro threshold ....   0.100
   Minimum threshold for Micro iter.    ....   0.010
   NR start threshold (gradient norm)   ....   0.001
   Initial trust radius                 ....   0.400
   Minimum AH scaling param. (alpha)    ....   1.000
   Maximum AH scaling param. (alpha)    .... 1000.000
   Orbital update algorithm             .... Taylor
   White noise on init. David. guess    .... on
   Maximum white noise                  ....   0.010
   Quad. conv. algorithm                .... NR
 SOSCF                  CNVSOSCF        .... off
 Level Shifting         CNVShift        .... on
   Level shift para.    LevelShift      ....    0.2500
   Turn off err/grad.   ShiftErr        ....    0.0010
 Zerner damping         CNVZerner       .... off
 Static damping         CNVDamp         .... on
   Fraction old density DampFac         ....    0.7000
   Max. Damping (<1)    DampMax         ....    0.9800
   Min. Damping (>=0)   DampMin         ....    0.0000
   Turn off err/grad.   DampErr         ....    0.1000
 Fernandez-Rico         CNVRico         .... off

SCF Procedure:
 Maximum # iterations   MaxIter         ....   125
 SCF integral mode      SCFMode         .... Direct
   Integral package                     .... SHARK and LIBINT hybrid scheme
 Reset frequency        DirectResetFreq ....    20
 Integral Threshold     Thresh          ....  2.500e-11 Eh
 Primitive CutOff       TCut            ....  2.500e-12 Eh

Convergence Tolerance:
 Convergence Check Mode ConvCheckMode   .... Total+1el-Energy
 Convergence forced     ConvForced      .... 0
 Energy Change          TolE            ....  1.000e-08 Eh
 1-El. energy change                    ....  1.000e-05 Eh
 DIIS Error             TolErr          ....  5.000e-07


Diagonalization of the overlap matrix:
Smallest eigenvalue                        ... 8.699e-06
Time for diagonalization                   ...    0.045 sec
Threshold for overlap eigenvalues          ... 1.000e-08
Number of eigenvalues below threshold      ... 0
Time for construction of square roots      ...    0.033 sec
Total time needed                          ...    0.079 sec

Time for model grid setup =    0.167 sec

------------------------------
INITIAL GUESS: MODEL POTENTIAL
------------------------------
Loading Hartree-Fock densities                     ... done
Calculating cut-offs                               ... done
Initializing the effective Hamiltonian             ... done
Setting up the integral package (SHARK)            ... done
Starting the Coulomb interaction                   ... done (   0.1 sec)
Reading the grid                                   ... done
Mapping shells                                     ... done
Starting the XC term evaluation                    ... done (   0.1 sec)
  promolecular density results
     # of electrons  =    111.004796790
     EX              =   -132.486198888
     EC              =     -4.086821236
     EX+EC           =   -136.573020124
Transforming the Hamiltonian                       ... done (   0.0 sec)
Diagonalizing the Hamiltonian                      ... done (   0.0 sec)
Back transforming the eigenvectors                 ... done (   0.0 sec)
Now organizing SCF variables                       ... done
                      ------------------
                      INITIAL GUESS DONE (   0.5 sec)
                      ------------------
-------------------
DFT GRID GENERATION
-------------------

General Integration Accuracy     IntAcc      ... 4.388
Radial Grid Type                 RadialGrid  ... OptM3 with GC (2021)
Angular Grid (max. ang.)         AngularGrid ... 4 (Lebedev-302)
Angular grid pruning method      GridPruning ... 4 (adaptive)
Weight generation scheme         WeightScheme... Becke
Basis function cutoff            BFCut       ... 1.0000e-11
Integration weight cutoff        WCut        ... 1.0000e-14
Angular grids for H and He will be reduced by one unit
Partially contracted basis set               ... off
Rotationally invariant grid construction     ... off

Total number of grid points                  ...   112379
Total number of batches                      ...     1768
Average number of points per batch           ...       63
Average number of grid points per atom       ...     4886
Time for grid setup =    0.919 sec


--------------------
CPCM SOLVATION MODEL
--------------------
CPCM parameters:
  Epsilon                                         ...      80.4000
  Refrac                                          ...       1.3300
  Rsolv                                           ...       1.3000
  Surface type                                    ... GAUSSIAN VDW
  Epsilon function type                           ...         CPCM
Radii:
 Radius for C  used is    3.8550 Bohr (=   2.0400 Ang.)
 Radius for O  used is    3.4469 Bohr (=   1.8240 Ang.)
 Radius for N  used is    3.5149 Bohr (=   1.8600 Ang.)
 Radius for H  used is    2.4944 Bohr (=   1.3200 Ang.)
 Radius for Cu used is    3.1747 Bohr (=   1.6800 Ang.)
Calculating surface                               ...        done! (  0.0s)
GEPOL surface points                              ...         1324
GEPOL Volume                                      ...    1386.4459
GEPOL Surface-area                                ...     778.6131
Calculating surface distance matrix               ...        done! (  0.0s)
Performing Cholesky decomposition & store         ...        done! (  0.2s)
Overall time for CPCM initialization              ...                 0.2s
--------------
SCF ITERATIONS
--------------
ITER       Energy         Delta-E        Max-DP      RMS-DP      [F,P]     Damp
               ***  Starting incremental Fock matrix formation  ***
  0  -2156.1715547357   0.000000000000 0.11386808  0.00105208  0.2527752 0.7000
  1  -2156.3351982605  -0.163643524784 0.10833398  0.00098457  0.0987361 0.7000
                               ***Turning on DIIS***
  2  -2156.3919620987  -0.056763838203 0.15200533  0.00156400  0.0482474 0.0000
  3  -2156.4846274855  -0.092665386747 0.10068754  0.00075422  0.0985485 0.0000
  4  -2156.5125122783  -0.027884792806 0.03296910  0.00028577  0.0142588 0.0000
  5  -2156.5141459915  -0.001633713176 0.01478671  0.00013781  0.0077046 0.0000
  6  -2156.5143192873  -0.000173295832 0.00770827  0.00006001  0.0041082 0.0000
  7  -2156.5143397750  -0.000020487667 0.00242479  0.00002072  0.0030389 0.0000
  8  -2156.5143507399  -0.000010964971 0.00192199  0.00002080  0.0006128 0.0000
  9  -2156.5143545658  -0.000003825872 0.00051895  0.00000449  0.0003283 0.0000
 10  -2156.5143550356  -0.000000469823 0.00028017  0.00000158  0.0002565 0.0000
 11  -2156.5143550910  -0.000000055400 0.00010196  0.00000077  0.0001542 0.0000
 12  -2156.5143551460  -0.000000054969 0.00011083  0.00000066  0.0000319 0.0000
 13  -2156.5143551465  -0.000000000516 0.00010113  0.00000089  0.0000209 0.0000
 14  -2156.5143551371   0.000000009431 0.00004156  0.00000034  0.0000214 0.0000
 15  -2156.5143551474  -0.000000010366 0.00009998  0.00000096  0.0000022 0.0000
 16  -2156.5143551472   0.000000000250 0.00010713  0.00000107  0.0000043 0.0000
                            ***DIIS convergence achieved***

               *****************************************************
               *                     SUCCESS                       *
               *           SCF CONVERGED AFTER  17 CYCLES          *
               *****************************************************


----------------
TOTAL SCF ENERGY
----------------

Total Energy       :        -2156.51435515 Eh          -58681.73893 eV

Components:
Nuclear Repulsion  :          891.26669533 Eh           24252.59976 eV
Electronic Energy  :        -3047.78105049 Eh          -82934.33868 eV
One Electron Energy:        -4760.38056309 Eh         -129536.54063 eV
Two Electron Energy:         1712.59951260 Eh           46602.20195 eV
CPCM Dielectric    :           -0.02262162 Eh              -0.61557 eV

Virial components:
Potential Energy   :        -4308.23360715 Eh         -117232.99646 eV
Kinetic Energy     :         2151.71925200 Eh           58551.25754 eV
Virial Ratio       :            2.00222850


DFT components:
N(Alpha)           :       56.000051676645 electrons
N(Beta)            :       55.000075829645 electrons
N(Total)           :      111.000127506291 electrons
E(X)               :     -133.839854408428 Eh       
E(C)               :       -4.092796756323 Eh       
E(XC)              :     -137.932651164751 Eh       
DFET-embed. en.    :        0.000000000000 Eh       
CPCM Solvation Model Properties:
Surface-charge          :           -0.07776587
Charge-correction       :            0.00066300 Eh               0.01804 eV
Free-energy (cav+disp)  :  This term is not implemented in the current solvation scheme

---------------
SCF CONVERGENCE
---------------

  Last Energy change         ...   -5.1423e-09  Tolerance :   1.0000e-08
  Last MAX-Density change    ...    1.6543e-04  Tolerance :   1.0000e-07
  Last RMS-Density change    ...    1.2683e-06  Tolerance :   5.0000e-09
  Last DIIS Error            ...    4.4392e-07  Tolerance :   5.0000e-07

             **** THE GBW FILE WAS UPDATED (neutral.gbw) ****
             **** DENSITY neutral.scfp WAS UPDATED ****
             **** ENERGY FILE WAS UPDATED (neutral.en.tmp) ****
----------------------
UHF SPIN CONTAMINATION
----------------------

Warning: in a DFT calculation there is little theoretical justification to 
         calculate <S**2> as in Hartree-Fock theory. We will do it anyways
         but you should keep in mind that the values have only limited relevance

Expectation value of <S**2>     :     0.752129
Ideal value S*(S+1) for S=0.5   :     0.750000
Deviation                       :     0.002129

             **** THE GBW FILE WAS UPDATED (neutral.gbw) ****
             **** DENSITY neutral.scfp WAS UPDATED ****
----------------
ORBITAL ENERGIES
----------------
                 SPIN UP ORBITALS
  NO   OCC          E(Eh)            E(eV) 
   0   1.0000    -321.468223     -8747.5951 
   1   1.0000     -38.231449     -1040.3306 
   2   1.0000     -33.523027      -912.2079 
   3   1.0000     -33.522665      -912.1981 
   4   1.0000     -33.522238      -912.1865 
   5   1.0000     -18.809001      -511.8189 
   6   1.0000     -18.782040      -511.0853 
   7   1.0000     -13.961940      -379.9237 
   8   1.0000      -9.948629      -270.7159 
   9   1.0000      -9.946971      -270.6708 
  10   1.0000      -9.900648      -269.4103 
  11   1.0000      -9.891917      -269.1727 
  12   1.0000      -9.890621      -269.1375 
  13   1.0000      -9.883406      -268.9412 
  14   1.0000      -9.881995      -268.9028 
  15   1.0000      -9.878064      -268.7958 
  16   1.0000      -4.064017      -110.5875 
  17   1.0000      -2.601713       -70.7962 
  18   1.0000      -2.599574       -70.7380 
  19   1.0000      -2.597602       -70.6843 
  20   1.0000      -0.993244       -27.0276 
  21   1.0000      -0.964733       -26.2517 
  22   1.0000      -0.802117       -21.8267 
  23   1.0000      -0.776815       -21.1382 
  24   1.0000      -0.699403       -19.0317 
  25   1.0000      -0.675121       -18.3710 
  26   1.0000      -0.638321       -17.3696 
  27   1.0000      -0.579471       -15.7682 
  28   1.0000      -0.557983       -15.1835 
  29   1.0000      -0.535884       -14.5822 
  30   1.0000      -0.503727       -13.7071 
  31   1.0000      -0.476669       -12.9708 
  32   1.0000      -0.441067       -12.0020 
  33   1.0000      -0.435267       -11.8442 
  34   1.0000      -0.410011       -11.1570 
  35   1.0000      -0.393925       -10.7192 
  36   1.0000      -0.390178       -10.6173 
  37   1.0000      -0.378448       -10.2981 
  38   1.0000      -0.376715       -10.2509 
  39   1.0000      -0.370841       -10.0911 
  40   1.0000      -0.347324        -9.4512 
  41   1.0000      -0.336491        -9.1564 
  42   1.0000      -0.330443        -8.9918 
  43   1.0000      -0.308385        -8.3916 
  44   1.0000      -0.303245        -8.2517 
  45   1.0000      -0.290808        -7.9133 
  46   1.0000      -0.288111        -7.8399 
  47   1.0000      -0.219976        -5.9859 
  48   1.0000      -0.208042        -5.6611 
  49   1.0000      -0.192452        -5.2369 
  50   1.0000      -0.179854        -4.8941 
  51   1.0000      -0.177076        -4.8185 
  52   1.0000      -0.176316        -4.7978 
  53   1.0000      -0.174543        -4.7496 
  54   1.0000      -0.172790        -4.7019 
  55   1.0000      -0.137757        -3.7485 
  56   0.0000      -0.040282        -1.0961 
  57   0.0000      -0.028858        -0.7853 
  58   0.0000      -0.009881        -0.2689 
  59   0.0000       0.011394         0.3100 
  60   0.0000       0.023102         0.6286 
  61   0.0000       0.039950         1.0871 
  62   0.0000       0.050091         1.3630 
  63   0.0000       0.054206         1.4750 
  64   0.0000       0.055673         1.5149 
  65   0.0000       0.073449         1.9986 
  66   0.0000       0.077115         2.0984 
  67   0.0000       0.089190         2.4270 
  68   0.0000       0.101841         2.7712 
  69   0.0000       0.103405         2.8138 
  70   0.0000       0.108435         2.9507 
  71   0.0000       0.115408         3.1404 
  72   0.0000       0.124174         3.3789 
  73   0.0000       0.134917         3.6713 
  74   0.0000       0.135960         3.6997 
  75   0.0000       0.139336         3.7915 
  76   0.0000       0.151877         4.1328 
  77   0.0000       0.162333         4.4173 
  78   0.0000       0.165551         4.5049 
  79   0.0000       0.172576         4.6960 
  80   0.0000       0.177542         4.8312 
  81   0.0000       0.186023         5.0619 
  82   0.0000       0.193830         5.2744 
  83   0.0000       0.199355         5.4247 
  84   0.0000       0.214444         5.8353 
  85   0.0000       0.221052         6.0151 
  86   0.0000       0.226246         6.1565 
  87   0.0000       0.233882         6.3642 
  88   0.0000       0.248215         6.7543 
  89   0.0000       0.253081         6.8867 
  90   0.0000       0.256056         6.9676 
  91   0.0000       0.265639         7.2284 
  92   0.0000       0.272736         7.4215 
  93   0.0000       0.275871         7.5068 
  94   0.0000       0.281584         7.6623 
  95   0.0000       0.288463         7.8495 
  96   0.0000       0.290510         7.9052 
  97   0.0000       0.297723         8.1015 
  98   0.0000       0.307611         8.3705 
  99   0.0000       0.317547         8.6409 
 100   0.0000       0.323146         8.7933 
 101   0.0000       0.328831         8.9479 
 102   0.0000       0.332576         9.0499 
 103   0.0000       0.344108         9.3636 
 104   0.0000       0.357171         9.7191 
 105   0.0000       0.366026         9.9601 
 106   0.0000       0.369656        10.0588 
 107   0.0000       0.376863        10.2550 
 108   0.0000       0.390303        10.6207 
 109   0.0000       0.398148        10.8342 
 110   0.0000       0.400582        10.9004 
 111   0.0000       0.408914        11.1271 
 112   0.0000       0.412721        11.2307 
 113   0.0000       0.422692        11.5020 
 114   0.0000       0.427588        11.6353 
 115   0.0000       0.434614        11.8264 
 116   0.0000       0.445837        12.1318 
 117   0.0000       0.455178        12.3860 
 118   0.0000       0.462141        12.5755 
 119   0.0000       0.471744        12.8368 
 120   0.0000       0.473233        12.8773 
 121   0.0000       0.487402        13.2629 
 122   0.0000       0.496486        13.5101 
 123   0.0000       0.511364        13.9149 
 124   0.0000       0.519257        14.1297 
 125   0.0000       0.522867        14.2279 
 126   0.0000       0.534698        14.5499 
 127   0.0000       0.551154        14.9977 
 128   0.0000       0.562501        15.3064 
 129   0.0000       0.573174        15.5969 
 130   0.0000       0.579604        15.7718 
 131   0.0000       0.594579        16.1793 
 132   0.0000       0.596755        16.2385 
 133   0.0000       0.608359        16.5543 
 134   0.0000       0.620619        16.8879 
 135   0.0000       0.635928        17.3045 
 136   0.0000       0.640348        17.4248 
 137   0.0000       0.668614        18.1939 
 138   0.0000       0.675825        18.3901 
 139   0.0000       0.683505        18.5991 
 140   0.0000       0.700004        19.0481 
 141   0.0000       0.707515        19.2525 
 142   0.0000       0.726469        19.7682 
 143   0.0000       0.735922        20.0255 
 144   0.0000       0.745803        20.2943 
 145   0.0000       0.765385        20.8272 
 146   0.0000       0.768804        20.9202 
 147   0.0000       0.773510        21.0483 
 148   0.0000       0.794281        21.6135 
 149   0.0000       0.806585        21.9483 
 150   0.0000       0.812937        22.1211 
 151   0.0000       0.824147        22.4262 
 152   0.0000       0.829491        22.5716 
 153   0.0000       0.839939        22.8559 
 154   0.0000       0.847311        23.0565 
 155   0.0000       0.871236        23.7075 
 156   0.0000       0.875301        23.8181 
 157   0.0000       0.884244        24.0615 
 158   0.0000       0.892795        24.2942 
 159   0.0000       0.913330        24.8530 
 160   0.0000       0.931958        25.3599 
 161   0.0000       0.944780        25.7088 
 162   0.0000       0.952086        25.9076 
 163   0.0000       0.972724        26.4692 
 164   0.0000       0.986053        26.8319 
 165   0.0000       0.990450        26.9515 
 166   0.0000       1.018577        27.7169 
 167   0.0000       1.042892        28.3785 
 168   0.0000       1.044454        28.4210 
 169   0.0000       1.064181        28.9578 
 170   0.0000       1.072495        29.1841 
 171   0.0000       1.083156        29.4742 
 172   0.0000       1.106589        30.1118 
 173   0.0000       1.127433        30.6790 
 174   0.0000       1.140339        31.0302 
 175   0.0000       1.150990        31.3200 
 176   0.0000       1.161851        31.6156 
 177   0.0000       1.186852        32.2959 
 178   0.0000       1.199555        32.6416 
 179   0.0000       1.212761        33.0009 
 180   0.0000       1.221327        33.2340 
 181   0.0000       1.244865        33.8745 
 182   0.0000       1.262358        34.3505 
 183   0.0000       1.270428        34.5701 
 184   0.0000       1.280798        34.8523 
 185   0.0000       1.284659        34.9574 
 186   0.0000       1.310777        35.6681 
 187   0.0000       1.330951        36.2170 
 188   0.0000       1.345274        36.6068 
 189   0.0000       1.358200        36.9585 
 190   0.0000       1.369975        37.2789 
 191   0.0000       1.389074        37.7986 
 192   0.0000       1.400944        38.1216 
 193   0.0000       1.408949        38.3394 
 194   0.0000       1.442183        39.2438 
 195   0.0000       1.451810        39.5058 
 196   0.0000       1.471101        40.0307 
 197   0.0000       1.487814        40.4855 
 198   0.0000       1.498255        40.7696 
 199   0.0000       1.506318        40.9890 
 200   0.0000       1.523867        41.4665 
 201   0.0000       1.531875        41.6844 
 202   0.0000       1.555980        42.3404 
 203   0.0000       1.564180        42.5635 
 204   0.0000       1.582039        43.0495 
 205   0.0000       1.600357        43.5479 
 206   0.0000       1.615879        43.9703 
 207   0.0000       1.632403        44.4200 
 208   0.0000       1.637508        44.5588 
 209   0.0000       1.649781        44.8928 
 210   0.0000       1.668659        45.4065 
 211   0.0000       1.672269        45.5048 
 212   0.0000       1.687214        45.9114 
 213   0.0000       1.690537        46.0018 
 214   0.0000       1.702456        46.3262 
 215   0.0000       1.739380        47.3309 
 216   0.0000       1.757820        47.8327 
 217   0.0000       1.764185        48.0059 
 218   0.0000       1.784868        48.5687 
 219   0.0000       1.799399        48.9641 
 220   0.0000       1.809545        49.2402 
 221   0.0000       1.826763        49.7087 
 222   0.0000       1.848520        50.3008 
 223   0.0000       1.850625        50.3581 
 224   0.0000       1.870107        50.8882 
 225   0.0000       1.889975        51.4288 
 226   0.0000       1.896902        51.6173 
 227   0.0000       1.911818        52.0232 
 228   0.0000       1.924845        52.3777 
 229   0.0000       1.934972        52.6533 
 230   0.0000       1.944779        52.9201 
 231   0.0000       1.966505        53.5113 
 232   0.0000       1.977357        53.8066 
 233   0.0000       1.989835        54.1462 
 234   0.0000       2.002274        54.4846 
 235   0.0000       2.017281        54.8930 
 236   0.0000       2.040457        55.5237 
 237   0.0000       2.055984        55.9462 
 238   0.0000       2.068328        56.2821 
 239   0.0000       2.082140        56.6579 
 240   0.0000       2.091097        56.9016 
 241   0.0000       2.105130        57.2835 
 242   0.0000       2.116116        57.5824 
 243   0.0000       2.122775        57.7636 
 244   0.0000       2.151728        58.5515 
 245   0.0000       2.162453        58.8433 
 246   0.0000       2.177996        59.2663 
 247   0.0000       2.186850        59.5072 
 248   0.0000       2.199817        59.8601 
 249   0.0000       2.205764        60.0219 
 250   0.0000       2.236350        60.8542 
 251   0.0000       2.248534        61.1857 
 252   0.0000       2.270344        61.7792 
 253   0.0000       2.285256        62.1850 
 254   0.0000       2.306369        62.7595 
 255   0.0000       2.333864        63.5077 
 256   0.0000       2.353145        64.0323 
 257   0.0000       2.363353        64.3101 
 258   0.0000       2.373402        64.5836 
 259   0.0000       2.393473        65.1297 
 260   0.0000       2.405518        65.4575 
 261   0.0000       2.412469        65.6466 
 262   0.0000       2.419590        65.8404 
 263   0.0000       2.448187        66.6185 
 264   0.0000       2.476911        67.4002 
 265   0.0000       2.482543        67.5534 
 266   0.0000       2.507397        68.2297 
 267   0.0000       2.516443        68.4759 
 268   0.0000       2.542228        69.1775 
 269   0.0000       2.557399        69.5904 
 270   0.0000       2.564412        69.7812 
 271   0.0000       2.575948        70.0951 
 272   0.0000       2.592455        70.5443 
 273   0.0000       2.598785        70.7165 
 274   0.0000       2.619036        71.2676 
 275   0.0000       2.620616        71.3106 
 276   0.0000       2.630825        71.5884 
 277   0.0000       2.645872        71.9978 
 278   0.0000       2.665416        72.5297 
 279   0.0000       2.676929        72.8430 
 280   0.0000       2.692352        73.2626 
 281   0.0000       2.704603        73.5960 
 282   0.0000       2.728145        74.2366 
 283   0.0000       2.742182        74.6186 
 284   0.0000       2.747175        74.7544 
 285   0.0000       2.764191        75.2175 
 286   0.0000       2.771328        75.4117 
 287   0.0000       2.787555        75.8532 
 288   0.0000       2.796517        76.0971 
 289   0.0000       2.806264        76.3623 
 290   0.0000       2.823887        76.8419 
 291   0.0000       2.836366        77.1814 
 292   0.0000       2.851660        77.5976 
 293   0.0000       2.862121        77.8823 
 294   0.0000       2.878405        78.3254 
 295   0.0000       2.903928        79.0199 
 296   0.0000       2.915672        79.3395 
 297   0.0000       2.929836        79.7249 
 298   0.0000       2.943405        80.0941 
 299   0.0000       2.953368        80.3652 
 300   0.0000       2.962008        80.6003 
 301   0.0000       2.980484        81.1031 
 302   0.0000       2.996804        81.5472 
 303   0.0000       3.009267        81.8863 
 304   0.0000       3.031148        82.4817 
 305   0.0000       3.051373        83.0321 
 306   0.0000       3.073057        83.6221 
 307   0.0000       3.082102        83.8683 
 308   0.0000       3.094818        84.2143 
 309   0.0000       3.102983        84.4365 
 310   0.0000       3.110268        84.6347 
 311   0.0000       3.125961        85.0617 
 312   0.0000       3.133197        85.2586 
 313   0.0000       3.148009        85.6617 
 314   0.0000       3.156976        85.9057 
 315   0.0000       3.174441        86.3809 
 316   0.0000       3.181199        86.5648 
 317   0.0000       3.192459        86.8712 
 318   0.0000       3.194683        86.9317 
 319   0.0000       3.223468        87.7150 
 320   0.0000       3.237016        88.0837 
 321   0.0000       3.243884        88.2706 
 322   0.0000       3.255384        88.5835 
 323   0.0000       3.262046        88.7648 
 324   0.0000       3.297051        89.7173 
 325   0.0000       3.305618        89.9505 
 326   0.0000       3.320945        90.3675 
 327   0.0000       3.333510        90.7094 
 328   0.0000       3.340864        90.9095 
 329   0.0000       3.353116        91.2429 
 330   0.0000       3.367466        91.6334 
 331   0.0000       3.377701        91.9119 
 332   0.0000       3.411711        92.8374 
 333   0.0000       3.413296        92.8805 
 334   0.0000       3.423679        93.1631 
 335   0.0000       3.434374        93.4541 
 336   0.0000       3.441029        93.6352 
 337   0.0000       3.456255        94.0495 
 338   0.0000       3.493621        95.0663 
 339   0.0000       3.511357        95.5489 
 340   0.0000       3.559516        96.8594 
 341   0.0000       3.572707        97.2183 
 342   0.0000       3.589120        97.6649 
 343   0.0000       3.591525        97.7304 
 344   0.0000       3.600967        97.9873 
 345   0.0000       3.610837        98.2559 
 346   0.0000       3.622796        98.5813 
 347   0.0000       3.643943        99.1567 
 348   0.0000       3.667060        99.7858 
 349   0.0000       3.693570       100.5072 
 350   0.0000       3.697136       100.6042 
 351   0.0000       3.745244       101.9133 
 352   0.0000       3.753875       102.1481 
 353   0.0000       3.759467       102.3003 
 354   0.0000       3.773969       102.6949 
 355   0.0000       3.805978       103.5659 
 356   0.0000       3.825608       104.1001 
 357   0.0000       3.837523       104.4243 
 358   0.0000       3.840513       104.5057 
 359   0.0000       3.859005       105.0089 
 360   0.0000       3.895258       105.9954 
 361   0.0000       3.904260       106.2403 
 362   0.0000       3.925665       106.8228 
 363   0.0000       3.942707       107.2865 
 364   0.0000       4.000073       108.8475 
 365   0.0000       4.009680       109.1089 
 366   0.0000       4.049985       110.2057 
 367   0.0000       4.067838       110.6915 
 368   0.0000       4.083470       111.1169 
 369   0.0000       4.107126       111.7606 
 370   0.0000       4.115978       112.0015 
 371   0.0000       4.138486       112.6139 
 372   0.0000       4.152672       112.9999 
 373   0.0000       4.189067       113.9903 
 374   0.0000       4.211490       114.6005 
 375   0.0000       4.222484       114.8996 
 376   0.0000       4.245014       115.5127 
 377   0.0000       4.264385       116.0398 
 378   0.0000       4.292299       116.7994 
 379   0.0000       4.322850       117.6307 
 380   0.0000       4.348284       118.3228 
 381   0.0000       4.373123       118.9987 
 382   0.0000       4.404388       119.8495 
 383   0.0000       4.467649       121.5709 
 384   0.0000       4.476416       121.8095 
 385   0.0000       4.537358       123.4678 
 386   0.0000       4.571974       124.4097 
 387   0.0000       4.601571       125.2151 
 388   0.0000       4.640012       126.2612 
 389   0.0000       4.682663       127.4217 
 390   0.0000       4.720595       128.4539 
 391   0.0000       4.756399       129.4282 
 392   0.0000       4.768145       129.7478 
 393   0.0000       4.789395       130.3261 
 394   0.0000       4.790721       130.3621 
 395   0.0000       4.831335       131.4673 
 396   0.0000       4.873451       132.6133 
 397   0.0000       4.906510       133.5129 
 398   0.0000       4.965549       135.1195 
 399   0.0000       4.968022       135.1867 
 400   0.0000       4.999326       136.0386 
 401   0.0000       5.020629       136.6183 
 402   0.0000       5.115671       139.2045 
 403   0.0000       5.119745       139.3154 
 404   0.0000       5.154773       140.2685 
 405   0.0000       5.165549       140.5617 
 406   0.0000       5.192442       141.2935 
 407   0.0000       5.244833       142.7192 
 408   0.0000       5.292678       144.0211 
 409   0.0000       5.321001       144.7918 
 410   0.0000       5.365665       146.0072 
 411   0.0000       5.366825       146.0387 
 412   0.0000       5.405852       147.1007 
 413   0.0000       5.468084       148.7941 
 414   0.0000       5.504612       149.7881 
 415   0.0000       5.542807       150.8274 
 416   0.0000       5.661056       154.0452 
 417   0.0000       5.683084       154.6446 
 418   0.0000       5.683667       154.6604 
 419   0.0000       5.684389       154.6801 
 420   0.0000       5.684838       154.6923 
 421   0.0000       5.685637       154.7140 
 422   0.0000       5.687381       154.7615 
 423   0.0000       5.694854       154.9649 
 424   0.0000       5.704652       155.2315 
 425   0.0000       5.744787       156.3236 
 426   0.0000       5.898225       160.4989 
 427   0.0000       6.002554       163.3378 
[...]
     34       0.000138  -0.000225   0.037385  -0.008762   0.002599  -0.065494
     35      -0.000006  -0.000032   0.001641  -0.000530   0.000141  -0.003891
     36      -0.000027   0.000163   0.000860   0.000154  -0.000048  -0.002968
     37      -0.000178   0.000086  -0.000022   0.000796   0.000033   0.001730
     38      -0.000010   0.000035   0.000166   0.000014  -0.000017  -0.000656
     39       0.000002  -0.000129   0.000113  -0.000288   0.000099   0.000597
     40       0.000003   0.000002  -0.000089  -0.000063  -0.000008  -0.000105
     41       0.000008  -0.000032   0.000028  -0.000063   0.000016   0.000122
     42       0.000209   0.001030   0.004909  -0.006494  -0.001579  -0.002826
     43       0.000155   0.000068   0.001055   0.000693  -0.000248  -0.000406
     44       0.000068   0.000202   0.001044  -0.001402  -0.000344  -0.000623
     45       0.002014  -0.002923   0.043592   0.439186   0.000657  -0.035228
     46       0.002192  -0.004572   0.085239   0.883876   0.001759  -0.072726
     47       0.001083  -0.000766   0.004923   0.049985   0.000249  -0.003968
     48       0.197456  -0.109486  -0.004996   0.002820  -0.032207  -0.003894
     49      -0.510982   0.291001   0.006096  -0.003126   0.089693   0.006071
     50       0.215076  -0.122672  -0.003094   0.001816  -0.039119  -0.002867
     51      -0.137597   0.072551  -0.000214   0.004003   0.004815  -0.002143
     52      -0.433264   0.237260   0.001158   0.006827   0.018992  -0.002732
     53      -0.429618   0.239004   0.000496   0.007413   0.018309  -0.003034
     54       0.281632   0.622607   0.039859  -0.000616  -0.711377  -0.007034
     55      -0.008221  -0.010046   0.000124   0.000150  -0.000033   0.000053
     56       0.046098   0.101260   0.006233  -0.000609  -0.105692  -0.000517
     57      -0.123185  -0.178786   0.009640  -0.000689  -0.185117  -0.001196
     58       0.369110   0.535698  -0.030519   0.004398   0.603514   0.004238
     59      -0.146812  -0.215488   0.012086  -0.002546  -0.244628  -0.001730
     60      -0.005319   0.004007  -0.433293   0.019958  -0.020610  -0.259223
     61       0.005529  -0.004709   0.726774  -0.036042   0.035169   0.428996
     62      -0.001863   0.001310  -0.121685   0.005891  -0.005707  -0.072505
     63      -0.001198   0.001695  -0.229619   0.054555  -0.015984   0.396369
     64      -0.002176   0.003346  -0.443540   0.105068  -0.030823   0.755117
     65      -0.000304   0.000223  -0.023955   0.005703  -0.001523   0.041798
     66      -0.000003  -0.000002  -0.000004   0.000007   0.000003  -0.000007
     67      -0.000000  -0.000002   0.000006  -0.000008   0.000002   0.000007
     68       0.000002   0.000002  -0.000001   0.000002   0.000001  -0.000002
                 66         67         68    
      0      -0.000185   0.000111  -0.000007
      1       0.000088  -0.000061   0.000003
      2      -0.000026   0.000040   0.000019
      3      -0.000105   0.000054  -0.000019
      4      -0.000252   0.000165  -0.000028
      5      -0.000046   0.000031  -0.000002
      6       0.000187  -0.000095   0.000048
      7      -0.000338   0.000171  -0.000056
      8       0.000066  -0.000046   0.000022
      9      -0.000761   0.000314  -0.000154
     10      -0.000253   0.000154   0.000000
     11       0.000403  -0.000231   0.000037
     12      -0.000004   0.000003  -0.000021
     13      -0.000254  -0.000282  -0.000104
     14      -0.000397   0.000200   0.000304
     15       0.002376  -0.001462  -0.000419
     16       0.001716   0.001441   0.001374
     17       0.001731  -0.000658  -0.000366
     18       0.045226  -0.062387   0.010951
     19       0.019190   0.034079   0.053127
     20       0.019499   0.015383  -0.059503
     21       0.122628   0.186534  -0.318433
     22       0.089002   0.157054  -0.229140
     23      -0.258935  -0.447426   0.709208
     24      -0.886629   0.403040  -0.058921
     25      -0.083409   0.047793   0.005666
     26      -0.105808   0.052468  -0.019461
     27       0.131387   0.276152   0.226528
     28      -0.280408  -0.675219  -0.514057
     29       0.079171   0.186589   0.129864
     30       0.000088  -0.000075   0.000005
     31       0.000667  -0.000274   0.000071
     32       0.000324  -0.000164   0.000017
     33       0.000250  -0.000106   0.000002
     34       0.000121  -0.000069   0.000006
     35      -0.000008  -0.000009  -0.000027
     36       0.000248  -0.000188   0.000031
     37       0.000195  -0.000110   0.000005
     38      -0.000006  -0.000012  -0.000005
     39      -0.000179   0.000139  -0.000024
     40      -0.000009   0.000003   0.000000
     41      -0.000037   0.000019  -0.000010
     42       0.002111  -0.001266   0.000070
     43       0.000292  -0.000172   0.000003
     44       0.000457  -0.000252   0.000042
     45       0.000775  -0.000336   0.000043
     46       0.002117  -0.000802   0.000134
     47       0.000094   0.000001   0.000015
     48      -0.000169  -0.001441  -0.000716
     49       0.000699   0.002390   0.000601
     50       0.000453   0.000008   0.000881
     51       0.001563  -0.000300   0.000472
     52       0.000635  -0.001587   0.000836
     53      -0.000909  -0.002374   0.001383
     54      -0.023992   0.014149   0.000909
     55      -0.002428  -0.000508  -0.000571
     56      -0.008969   0.003978   0.000162
     57       0.001520   0.005198   0.004440
     58      -0.008350  -0.017552  -0.016483
     59       0.000099   0.002692   0.004408
     60       0.001527  -0.000279   0.000189
     61      -0.002977   0.000484  -0.000406
     62       0.000056   0.000126   0.000048
     63      -0.001027   0.000601  -0.000047
     64      -0.001780   0.000928  -0.000071
     65      -0.000106   0.000039  -0.000044
     66       0.000007  -0.000009   0.000001
     67      -0.000007   0.000005   0.000001
     68      -0.000003   0.000001   0.000007


-----------
IR SPECTRUM
-----------

 Mode   freq       eps      Int      T**2         TX        TY        TZ
       cm**-1   L/(mol*cm) km/mol    a.u.
----------------------------------------------------------------------------
  6:     15.99   0.001693    8.56  0.033045  ( 0.135901  0.086440  0.084289)
  7:     35.75   0.003151   15.93  0.027506  ( 0.033614  0.120662 -0.108706)
  8:     60.40   0.008948   45.22  0.046229  ( 0.208513 -0.052272 -0.004317)
  9:    110.64   0.000017    0.09  0.000049  (-0.004366 -0.001535  0.005255)
 10:    126.54   0.003767   19.04  0.009289  (-0.083876  0.012805  0.045717)
 11:    150.92   0.001480    7.48  0.003060  ( 0.036562 -0.025937 -0.032418)
 12:    199.24   0.005239   26.48  0.008206  ( 0.073664 -0.036523 -0.038020)
 13:    204.75   0.001964    9.93  0.002993  (-0.028765  0.036244 -0.029197)
 14:    242.49   0.000514    2.60  0.000662  (-0.001070  0.004661 -0.025276)
 15:    313.93   0.001660    8.39  0.001650  (-0.006329  0.015613  0.036959)
 16:    343.22   0.003902   19.72  0.003548  ( 0.035883  0.019584 -0.043323)
 17:    372.58   0.001922    9.71  0.001610  (-0.023305  0.032117  0.005923)
 18:    430.13   0.002349   11.87  0.001704  (-0.010477  0.029051 -0.027400)
 19:    442.85   0.006399   32.34  0.004509  (-0.041221  0.014303  0.051044)
 20:    455.96   0.002920   14.76  0.001998  ( 0.010487  0.011496 -0.041908)
 21:    495.32   0.005049   25.51  0.003181  (-0.055850  0.007365 -0.002683)
 22:    513.20   0.001618    8.17  0.000984  ( 0.027510 -0.014803 -0.002765)
 23:    594.37   0.001672    8.45  0.000878  ( 0.013116 -0.023934 -0.011524)
 24:    623.32   0.003045   15.39  0.001524  ( 0.004412 -0.003253  0.038657)
 25:    696.86   0.003001   15.17  0.001344  ( 0.036127  0.006048 -0.001472)
 26:    708.69   0.000025    0.13  0.000011  ( 0.003201 -0.000685  0.000494)
 27:    785.73   0.013835   69.91  0.005495  (-0.019281  0.012666 -0.070445)
 28:    787.49   0.020967  105.96  0.008309  ( 0.083100 -0.035675 -0.011420)
 29:    814.54   0.001697    8.57  0.000650  (-0.015388  0.014174 -0.014572)
 30:    840.10   0.010275   51.93  0.003817  (-0.031206  0.013319  0.051630)
 31:    854.05   0.002123   10.73  0.000776  ( 0.022197 -0.013854 -0.009546)
 32:    882.20   0.000166    0.84  0.000059  (-0.002620  0.000887 -0.007147)
 33:    910.35   0.003349   16.92  0.001148  ( 0.002258 -0.020401  0.026958)
 34:    938.36   0.004015   20.29  0.001335  ( 0.010567  0.034323 -0.006751)
 35:    997.96   0.004593   23.21  0.001436  ( 0.007122 -0.030721 -0.021020)
 36:   1049.21   0.010551   53.32  0.003138  ( 0.048511  0.011598 -0.025500)
 37:   1070.16   0.002182   11.03  0.000636  (-0.021156  0.002836 -0.013444)
 38:   1100.67   0.007056   35.66  0.002001  ( 0.030133  0.032985 -0.002133)
 39:   1136.22   0.006221   31.44  0.001709  ( 0.014670 -0.038643 -0.000146)
 40:   1166.35   0.007425   37.52  0.001987  ( 0.024987 -0.036288  0.006747)
 41:   1222.45   0.026612  134.49  0.006793  ( 0.049266 -0.065622  0.007750)
 42:   1225.13   0.006000   30.32  0.001528  ( 0.030580  0.020729 -0.012791)
 43:   1253.22   0.000638    3.22  0.000159  ( 0.008957  0.006680  0.005827)
 44:   1283.71   0.156158  789.16  0.037961  (-0.183198  0.055222 -0.036749)
 45:   1286.81   0.053255  269.13  0.012915  (-0.110965  0.021613 -0.011594)
 46:   1321.65   0.011202   56.61  0.002645  (-0.038572  0.032284 -0.010721)
 47:   1339.93   0.007908   39.96  0.001842  ( 0.031697  0.028666 -0.003918)
 48:   1357.95   0.004561   23.05  0.001048  (-0.015668  0.016922  0.022724)
 49:   1410.79   0.002554   12.91  0.000565  (-0.008773 -0.004781  0.021568)
 50:   1432.40   0.005649   28.55  0.001231  (-0.014080  0.002059  0.032065)
 51:   1440.69   0.003568   18.03  0.000773  ( 0.025156 -0.011331  0.003421)
 52:   1447.25   0.034078  172.21  0.007348  ( 0.002281 -0.054405 -0.066204)
 53:   1472.56   0.126296  638.25  0.026765  (-0.155990  0.035850 -0.033861)
 54:   1535.32   0.003513   17.75  0.000714  (-0.017442  0.020233 -0.000693)
 55:   1573.33   0.009145   46.22  0.001814  ( 0.005541 -0.036990  0.020369)
 56:   1590.42   0.007707   38.95  0.001512  ( 0.033749  0.003406  0.019014)
 57:   1593.06   0.016466   83.21  0.003226  (-0.050558 -0.008394  0.024472)
 58:   2966.76   0.554071  2800.05  0.058281  (-0.229584 -0.063874 -0.038625)
 59:   2975.89   0.003545   17.92  0.000372  (-0.008057  0.010121 -0.014297)
 60:   3017.07   0.001142    5.77  0.000118  (-0.003199  0.009535  0.004117)
 61:   3029.76   0.005854   29.58  0.000603  (-0.016128 -0.018433  0.001748)
 62:   3080.66   0.004528   22.88  0.000459  ( 0.019669 -0.007108  0.004613)
 63:   3083.44   0.005125   25.90  0.000519  (-0.011859 -0.019341 -0.001979)
 64:   3084.48   0.003406   17.21  0.000345  ( 0.017123 -0.006396  0.003246)
 65:   3099.44   0.005486   27.72  0.000552  (-0.003783 -0.023143  0.001548)
 66:   3304.66   0.021087  106.57  0.001991  (-0.044089 -0.006819 -0.000998)
 67:   3391.45   0.037979  191.93  0.003495  ( 0.050551 -0.023584 -0.019572)
 68:   3429.40   0.027553  139.24  0.002507  (-0.008652 -0.031283  0.038128)

* The epsilon (eps) is given for a Dirac delta lineshape.
** The dipole moment derivative (T) already includes vibrational overlap.

The first frequency considered to be a vibration is 6
The total number of vibrations considered is 63


--------------------------
THERMOCHEMISTRY AT 298.15K
--------------------------

Temperature         ... 298.15 K
Pressure            ... 1.00 atm
Total Mass          ... 216.73 AMU

Throughout the following assumptions are being made:
  (1) The electronic state is orbitally nondegenerate
      but the spin degeneracy is treated
  (2) There are no thermally accessible electronically excited states
  (3) Hindered rotations indicated by low frequency modes are not
      treated as such but are treated as vibrations and this may
      cause some error
  (4) All equations used are the standard statistical mechanics
      equations for an ideal gas
  (5) All vibrations are strictly harmonic

freq.      15.99  E(vib)   ...       0.57 
freq.      35.75  E(vib)   ...       0.54 
freq.      60.40  E(vib)   ...       0.51 
freq.     110.64  E(vib)   ...       0.45 
freq.     126.54  E(vib)   ...       0.43 
freq.     150.92  E(vib)   ...       0.40 
freq.     199.24  E(vib)   ...       0.35 
freq.     204.75  E(vib)   ...       0.35 
freq.     242.49  E(vib)   ...       0.31 
freq.     313.93  E(vib)   ...       0.25 
freq.     343.22  E(vib)   ...       0.23 
freq.     372.58  E(vib)   ...       0.21 
freq.     430.13  E(vib)   ...       0.18 
freq.     442.85  E(vib)   ...       0.17 
freq.     455.96  E(vib)   ...       0.16 
freq.     495.32  E(vib)   ...       0.14 
freq.     513.20  E(vib)   ...       0.13 
freq.     594.37  E(vib)   ...       0.10 
freq.     623.32  E(vib)   ...       0.09 
freq.     696.86  E(vib)   ...       0.07 
freq.     708.69  E(vib)   ...       0.07 
freq.     785.73  E(vib)   ...       0.05 
freq.     787.49  E(vib)   ...       0.05 
freq.     814.54  E(vib)   ...       0.05 
freq.     840.10  E(vib)   ...       0.04 
freq.     854.05  E(vib)   ...       0.04 
freq.     882.20  E(vib)   ...       0.04 
freq.     910.35  E(vib)   ...       0.03 
freq.     938.36  E(vib)   ...       0.03 
freq.     997.96  E(vib)   ...       0.02 
freq.    1049.21  E(vib)   ...       0.02 
freq.    1070.16  E(vib)   ...       0.02 
freq.    1100.67  E(vib)   ...       0.02 
freq.    1136.22  E(vib)   ...       0.01 
freq.    1166.35  E(vib)   ...       0.01 
freq.    1222.45  E(vib)   ...       0.01 
freq.    1225.13  E(vib)   ...       0.01 
freq.    1253.22  E(vib)   ...       0.01 
freq.    1283.71  E(vib)   ...       0.01 
freq.    1286.81  E(vib)   ...       0.01 
freq.    1321.65  E(vib)   ...       0.01 
freq.    1339.93  E(vib)   ...       0.01 
freq.    1357.95  E(vib)   ...       0.01 
freq.    1410.79  E(vib)   ...       0.00 
freq.    1432.40  E(vib)   ...       0.00 
freq.    1440.69  E(vib)   ...       0.00 
freq.    1447.25  E(vib)   ...       0.00 
freq.    1472.56  E(vib)   ...       0.00 
freq.    1535.32  E(vib)   ...       0.00 
freq.    1573.33  E(vib)   ...       0.00 
freq.    1590.42  E(vib)   ...       0.00 
freq.    1593.06  E(vib)   ...       0.00 
freq.    2966.76  E(vib)   ...       0.00 
freq.    2975.89  E(vib)   ...       0.00 
freq.    3017.07  E(vib)   ...       0.00 
freq.    3029.76  E(vib)   ...       0.00 
freq.    3080.66  E(vib)   ...       0.00 
freq.    3083.44  E(vib)   ...       0.00 
freq.    3084.48  E(vib)   ...       0.00 
freq.    3099.44  E(vib)   ...       0.00 
freq.    3304.66  E(vib)   ...       0.00 
freq.    3391.45  E(vib)   ...       0.00 
freq.    3429.40  E(vib)   ...       0.00 

------------
INNER ENERGY
------------

The inner energy is: U= E(el) + E(ZPE) + E(vib) + E(rot) + E(trans)
    E(el)   - is the total energy from the electronic structure calculation
              = E(kin-el) + E(nuc-el) + E(el-el) + E(nuc-nuc)
    E(ZPE)  - the the zero temperature vibrational energy from the frequency calculation
    E(vib)  - the the finite temperature correction to E(ZPE) due to population
              of excited vibrational states
    E(rot)  - is the rotational thermal energy
    E(trans)- is the translational thermal energy

Summary of contributions to the inner energy U:
Electronic energy                ...  -2156.55538323 Eh
Zero point energy                ...      0.17933785 Eh     112.54 kcal/mol
Thermal vibrational correction   ...      0.00996621 Eh       6.25 kcal/mol
Thermal rotational correction    ...      0.00141627 Eh       0.89 kcal/mol
Thermal translational correction ...      0.00141627 Eh       0.89 kcal/mol
-----------------------------------------------------------------------
Total thermal energy                  -2156.36324663 Eh


Summary of corrections to the electronic energy:
(perhaps to be used in another calculation)
Total thermal correction                  0.01279875 Eh       8.03 kcal/mol
Non-thermal (ZPE) correction              0.17933785 Eh     112.54 kcal/mol
-----------------------------------------------------------------------
Total correction                          0.19213660 Eh     120.57 kcal/mol


--------
ENTHALPY
--------

The enthalpy is H = U + kB*T
                kB is Boltzmann's constant
Total free energy                 ...  -2156.36324663 Eh 
Thermal Enthalpy correction       ...      0.00094421 Eh       0.59 kcal/mol
-----------------------------------------------------------------------
Total Enthalpy                    ...  -2156.36230242 Eh


Note: Only C1 symmetry has been detected, increase convergence thresholds 
      if your molecule has a higher symmetry. Symmetry factor of 1.0 is   
      used for the rotational entropy correction. 
 

Note: Rotational entropy computed according to Herzberg 
Infrared and Raman Spectra, Chapter V,1, Van Nostrand Reinhold, 1945 
Point Group:  C1, Symmetry Number:   1  
Rotational constants in cm-1:     0.065601     0.009468     0.008967 

Vibrational entropy computed according to the QRRHO of S. Grimme
Chem.Eur.J. 2012 18 9955


-------
ENTROPY
-------

The entropy contributions are T*S = T*(S(el)+S(vib)+S(rot)+S(trans))
     S(el)   - electronic entropy
     S(vib)  - vibrational entropy
     S(rot)  - rotational entropy
     S(trans)- translational entropy
The entropies will be listed as multiplied by the temperature to get
units of energy

Electronic entropy                ...      0.00065446 Eh      0.41 kcal/mol
Vibrational entropy               ...      0.01788853 Eh     11.23 kcal/mol
Rotational entropy                ...      0.01522228 Eh      9.55 kcal/mol
Translational entropy             ...      0.01996671 Eh     12.53 kcal/mol
-----------------------------------------------------------------------
Final entropy term                ...      0.05373197 Eh     33.72 kcal/mol

In case the symmetry of your molecule has not been determined correctly
or in case you have a reason to use a different symmetry number we print 
out the resulting rotational entropy values for sn=1,12 :
 --------------------------------------------------------
|  sn= 1 | S(rot)=       0.01522228 Eh      9.55 kcal/mol|
|  sn= 2 | S(rot)=       0.01456782 Eh      9.14 kcal/mol|
|  sn= 3 | S(rot)=       0.01418499 Eh      8.90 kcal/mol|
|  sn= 4 | S(rot)=       0.01391336 Eh      8.73 kcal/mol|
|  sn= 5 | S(rot)=       0.01370268 Eh      8.60 kcal/mol|
|  sn= 6 | S(rot)=       0.01353053 Eh      8.49 kcal/mol|
|  sn= 7 | S(rot)=       0.01338498 Eh      8.40 kcal/mol|
|  sn= 8 | S(rot)=       0.01325891 Eh      8.32 kcal/mol|
|  sn= 9 | S(rot)=       0.01314770 Eh      8.25 kcal/mol|
|  sn=10 | S(rot)=       0.01304822 Eh      8.19 kcal/mol|
|  sn=11 | S(rot)=       0.01295823 Eh      8.13 kcal/mol|
|  sn=12 | S(rot)=       0.01287607 Eh      8.08 kcal/mol|
 --------------------------------------------------------


-------------------
GIBBS FREE ENERGY
-------------------

The Gibbs free energy is G = H - T*S

Total enthalpy                    ...  -2156.36230242 Eh 
Total entropy correction          ...     -0.05373197 Eh    -33.72 kcal/mol
-----------------------------------------------------------------------
Final Gibbs free energy         ...  -2156.41603439 Eh

For completeness - the Gibbs free energy minus the electronic energy
G-E(el)                           ...      0.13934884 Eh     87.44 kcal/mol



Timings for individual modules:

Sum of individual times         ...     1718.571 sec (=  28.643 min)
GTO integral calculation        ...        4.260 sec (=   0.071 min)   0.2 %
SCF iterations                  ...       69.119 sec (=   1.152 min)   4.0 %
SCF Gradient evaluation         ...       16.735 sec (=   0.279 min)   1.0 %
Geometry relaxation             ...        0.081 sec (=   0.001 min)   0.0 %
Numerical frequency calculation ...     1628.376 sec (=  27.140 min)  94.8 %



                             ****ORCA TERMINATED NORMALLY****
TOTAL RUN TIME: 0 days 2 hours 15 minutes 6 seconds 725 msec
