
                                 *****************
                                 * O   R   C   A *
                                 *****************

                                            #,                                       
                                            ###                                      
                                            ####                                     
                                            #####                                    
                                            ######                                   
                                           ########,                                 
                                     ,,################,,,,,                         
                               ,,#################################,,                 
                          ,,##########################################,,             
                       ,#########################################, ''#####,          
                    ,#############################################,,   '####,        
                  ,##################################################,,,,####,       
                ,###########''''           ''''###############################       
              ,#####''   ,,,,##########,,,,          '''####'''          '####       
            ,##' ,,,,###########################,,,                        '##       
           ' ,,###''''                  '''############,,,                           
         ,,##''                                '''############,,,,        ,,,,,,###''
      ,#''                                            '''#######################'''  
     '                                                          ''''####''''         
             ,#######,   #######,   ,#######,      ##                                
            ,#'     '#,  ##    ##  ,#'     '#,    #''#        ######   ,####,        
            ##       ##  ##   ,#'  ##            #'  '#       #        #'  '#        
            ##       ##  #######   ##           ,######,      #####,   #    #        
            '#,     ,#'  ##    ##  '#,     ,#' ,#      #,         ##   #,  ,#        
             '#######'   ##     ##  '#######'  #'      '#     #####' # '####'        



                  #######################################################
                  #                        -***-                        #
                  #          Department of theory and spectroscopy      #
                  #    Directorship and core code : Frank Neese         #
                  #        Max Planck Institute fuer Kohlenforschung    #
                  #                Kaiser Wilhelm Platz 1               #
                  #                 D-45470 Muelheim/Ruhr               #
                  #                      Germany                        #
                  #                                                     #
                  #                  All rights reserved                #
                  #                        -***-                        #
                  #######################################################


                         Program Version 5.0.1 -  RELEASE  -


 With contributions from (in alphabetic order):
   Daniel Aravena         : Magnetic Suceptibility
   Michael Atanasov       : Ab Initio Ligand Field Theory (pilot matlab implementation)
   Alexander A. Auer      : GIAO ZORA, VPT2 properties, NMR spectrum
   Ute Becker             : Parallelization
   Giovanni Bistoni       : ED, misc. LED, open-shell LED, HFLD
   Martin Brehm           : Molecular dynamics
   Dmytro Bykov           : SCF Hessian
   Vijay G. Chilkuri      : MRCI spin determinant printing, contributions to CSF-ICE
   Dipayan Datta          : RHF DLPNO-CCSD density
   Achintya Kumar Dutta   : EOM-CC, STEOM-CC
   Dmitry Ganyushin       : Spin-Orbit,Spin-Spin,Magnetic field MRCI
   Miquel Garcia          : C-PCM and meta-GGA Hessian, CC/C-PCM, Gaussian charge scheme
   Yang Guo               : DLPNO-NEVPT2, F12-NEVPT2, CIM, IAO-localization
   Andreas Hansen         : Spin unrestricted coupled pair/coupled cluster methods
   Benjamin Helmich-Paris : MC-RPA, TRAH-SCF, COSX integrals
   Lee Huntington         : MR-EOM, pCC
   Robert Izsak           : Overlap fitted RIJCOSX, COSX-SCS-MP3, EOM
   Marcus Kettner         : VPT2
   Christian Kollmar      : KDIIS, OOCD, Brueckner-CCSD(T), CCSD density, CASPT2, CASPT2-K
   Simone Kossmann        : Meta GGA functionals, TD-DFT gradient, OOMP2, MP2 Hessian
   Martin Krupicka        : Initial AUTO-CI
   Lucas Lang             : DCDCAS
   Marvin Lechner         : AUTO-CI (C++ implementation), FIC-MRCC
   Dagmar Lenk            : GEPOL surface, SMD
   Dimitrios Liakos       : Extrapolation schemes; Compound Job, initial MDCI parallelization
   Dimitrios Manganas     : Further ROCIS development; embedding schemes
   Dimitrios Pantazis     : SARC Basis sets
   Anastasios Papadopoulos: AUTO-CI, single reference methods and gradients
   Taras Petrenko         : DFT Hessian,TD-DFT gradient, ASA, ECA, R-Raman, ABS, FL, XAS/XES, NRVS
   Peter Pinski           : DLPNO-MP2, DLPNO-MP2 Gradient
   Christoph Reimann      : Effective Core Potentials
   Marius Retegan         : Local ZFS, SOC
   Christoph Riplinger    : Optimizer, TS searches, QM/MM, DLPNO-CCSD(T), (RO)-DLPNO pert. Triples
   Tobias Risthaus        : Range-separated hybrids, TD-DFT gradient, RPA, STAB
   Michael Roemelt        : Original ROCIS implementation
   Masaaki Saitow         : Open-shell DLPNO-CCSD energy and density
   Barbara Sandhoefer     : DKH picture change effects
   Avijit Sen             : IP-ROCIS
   Kantharuban Sivalingam : CASSCF convergence, NEVPT2, FIC-MRCI
   Bernardo de Souza      : ESD, SOC TD-DFT
   Georgi Stoychev        : AutoAux, RI-MP2 NMR, DLPNO-MP2 response
   Willem Van den Heuvel  : Paramagnetic NMR
   Boris Wezisla          : Elementary symmetry handling
   Frank Wennmohs         : Technical directorship


 We gratefully acknowledge several colleagues who have allowed us to
 interface, adapt or use parts of their codes:
   Stefan Grimme, W. Hujo, H. Kruse, P. Pracht,  : VdW corrections, initial TS optimization,
                  C. Bannwarth, S. Ehlert          DFT functionals, gCP, sTDA/sTD-DF
   Ed Valeev, F. Pavosevic, A. Kumar             : LibInt (2-el integral package), F12 methods
   Garnet Chan, S. Sharma, J. Yang, R. Olivares  : DMRG
   Ulf Ekstrom                                   : XCFun DFT Library
   Mihaly Kallay                                 : mrcc  (arbitrary order and MRCC methods)
   Jiri Pittner, Ondrej Demel                    : Mk-CCSD
   Frank Weinhold                                : gennbo (NPA and NBO analysis)
   Christopher J. Cramer and Donald G. Truhlar   : smd solvation model
   Lars Goerigk                                  : TD-DFT with DH, B97 family of functionals
   V. Asgeirsson, H. Jonsson                     : NEB implementation
   FAccTs GmbH                                   : IRC, NEB, NEB-TS, DLPNO-Multilevel, CI-OPT
                                                   MM, QMMM, 2- and 3-layer-ONIOM, Crystal-QMMM,
                                                   LR-CPCM, SF, NACMEs, symmetry and pop. for TD-DFT,
                                                   nearIR, NL-DFT gradient (VV10), updates on ESD,
                                                   ML-optimized integration grids
   S Lehtola, MJT Oliveira, MAL Marques          : LibXC Library
   Liviu Ungur et al                             : ANISO software


 Your calculation uses the libint2 library for the computation of 2-el integrals
 For citations please refer to: http://libint.valeyev.net

 Your ORCA version has been built with support for libXC version: 5.1.0
 For citations please refer to: https://tddft.org/programs/libxc/

 This ORCA versions uses:
   CBLAS   interface :  Fast vector & matrix operations
   LAPACKE interface :  Fast linear algebra routines
   SCALAPACK package :  Parallel linear algebra routines
   Shared memory     :  Shared parallel matrices
   BLAS/LAPACK       :  OpenBLAS 0.3.15  USE64BITINT DYNAMIC_ARCH NO_AFFINITY Haswell SINGLE_THREADED
        Core in use  :  Haswell
   Copyright (c) 2011-2014, The OpenBLAS Project


Your calculation utilizes the atom-pairwise dispersion correction
with the Becke-Johnson damping scheme (D3BJ)
Cite in your paper:
S.Grimme, S.Ehrlich, L.Goerigk, J Comput Chem, (2011), 32, 1456–1465 
S.Grimme, J.Antony, S.Ehrlich and H.Krieg, J.Chem.Phys., 132, (2010), 154104 
   

================================================================================

----- Orbital basis set information -----
Your calculation utilizes the basis: def2-TZVP
   F. Weigend and R. Ahlrichs, Phys. Chem. Chem. Phys. 7, 3297 (2005).

----- AuxJ basis set information -----
Your calculation utilizes the auxiliary basis: def2/J
   F. Weigend, Phys. Chem. Chem. Phys. 8, 1057 (2006).

================================================================================
                                        WARNINGS
                       Please study these warnings very carefully!
================================================================================


WARNING: Geometry Optimization
  ===> : Switching off AutoStart
         For restart on a previous wavefunction, please use MOREAD

INFO   : the flag for use of the SHARK integral package has been found!

Your calculation utilizes the atom-pairwise dispersion correction
with the Becke-Johnson damping scheme (D3BJ)
Cite in your paper:
S.Grimme, S.Ehrlich, L.Goerigk, J Comput Chem, (2011), 32, 1456–1465 
S.Grimme, J.Antony, S.Ehrlich and H.Krieg, J.Chem.Phys., 132, (2010), 154104 
   

================================================================================

----- Orbital basis set information -----
Your calculation utilizes the basis: def2-SVP
   F. Weigend and R. Ahlrichs, Phys. Chem. Chem. Phys. 7, 3297 (2005).

================================================================================
                                        WARNINGS
                       Please study these warnings very carefully!
================================================================================


INFO   : the flag for use of the SHARK integral package has been found!

Your calculation utilizes the atom-pairwise dispersion correction
with the Becke-Johnson damping scheme (D3BJ)
Cite in your paper:
S.Grimme, S.Ehrlich, L.Goerigk, J Comput Chem, (2011), 32, 1456–1465 
S.Grimme, J.Antony, S.Ehrlich and H.Krieg, J.Chem.Phys., 132, (2010), 154104 
   

================================================================================

----- Orbital basis set information -----
Your calculation utilizes the basis: def2-SVP
   F. Weigend and R. Ahlrichs, Phys. Chem. Chem. Phys. 7, 3297 (2005).

================================================================================
                                        WARNINGS
                       Please study these warnings very carefully!
================================================================================


INFO   : the flag for use of the SHARK integral package has been found!

Your calculation utilizes the atom-pairwise dispersion correction
with the Becke-Johnson damping scheme (D3BJ)
Cite in your paper:
S.Grimme, S.Ehrlich, L.Goerigk, J Comput Chem, (2011), 32, 1456–1465 
S.Grimme, J.Antony, S.Ehrlich and H.Krieg, J.Chem.Phys., 132, (2010), 154104 
   

================================================================================

----- Orbital basis set information -----
Your calculation utilizes the basis: def2-SVP
   F. Weigend and R. Ahlrichs, Phys. Chem. Chem. Phys. 7, 3297 (2005).

================================================================================
                                        WARNINGS
                       Please study these warnings very carefully!
================================================================================


INFO   : the flag for use of the SHARK integral package has been found!

Your calculation utilizes the atom-pairwise dispersion correction
with the Becke-Johnson damping scheme (D3BJ)
Cite in your paper:
S.Grimme, S.Ehrlich, L.Goerigk, J Comput Chem, (2011), 32, 1456–1465 
S.Grimme, J.Antony, S.Ehrlich and H.Krieg, J.Chem.Phys., 132, (2010), 154104 
   

================================================================================

----- Orbital basis set information -----
Your calculation utilizes the basis: def2-SVP
   F. Weigend and R. Ahlrichs, Phys. Chem. Chem. Phys. 7, 3297 (2005).

================================================================================
                                        WARNINGS
                       Please study these warnings very carefully!
================================================================================


INFO   : the flag for use of the SHARK integral package has been found!

================================================================================
                                       INPUT FILE
================================================================================
NAME = ex.inp
|  1> ! PBE D3 def2-TZVP opt 
|  2> 
|  3> %base "M0005"
|  4> %pal nprocs=8 end
|  5> %geom maxiter=75 end
|  6> * xyz -1 1
|  7> O        2.249561     -1.841863     -0.165908
|  8> O        3.249468      0.657249     -0.451620
|  9> N       -3.084232      0.242549     -1.357338
| 10> C       -2.188716     -0.077980      0.969998
| 11> C       -0.740375      0.117388      0.607627
| 12> C       -3.047488     -0.629768     -0.178708
| 13> C        0.098468     -0.976667      0.396777
| 14> C       -0.204397      1.402002      0.460742
| 15> C        1.428280     -0.756106      0.043963
| 16> C        1.143233      1.583680      0.103622
| 17> C        2.020984      0.513725     -0.123158
| 18> H       -2.616910      0.869389      1.322475
| 19> H       -2.244929     -0.765330      1.823814
| 20> H       -4.073913     -0.759665      0.181667
| 21> H       -2.691449     -1.619393     -0.486219
| 22> H       -0.256297     -1.995555      0.497450
| 23> H       -0.819276      2.282701      0.617511
| 24> H        1.526577      2.597370     -0.003164
| 25> H       -2.138388      0.248324     -1.757011
| 26> H       -3.222242      1.205217     -1.051837
| 27> H        3.074280     -1.341635     -0.388278
| 28> *
| 29> 
| 30> $new_job
| 31> 
| 32> %base "M0003"
| 33> %pal nprocs=8 end
| 34> %geom maxiter=75 end
| 35> * xyz -1 1
| 36> O        2.250562     -1.837087      0.120435
| 37> O        3.249215      0.590745     -0.536637
| 38> N       -2.973997     -0.755944     -1.280420
| 39> C       -2.192138      0.067321      0.963195
| 40> C       -0.742966      0.212891      0.581727
| 41> C       -3.162396      0.235163     -0.216332
| 42> C        0.098118     -0.899035      0.541937
| 43> C       -0.209018      1.460924      0.241720
| 44> C        1.428294     -0.732789      0.162699
| 45> C        1.139750      1.588258     -0.134820
| 46> C        2.019863      0.497616     -0.193566
| 47> H       -2.427422      0.814402      1.732028
| 48> H       -2.358044     -0.908916      1.437108
| 49> H       -3.070819      1.236843     -0.651038
| 50> H       -4.188312      0.143887      0.157118
| 51> H       -0.254443     -1.891885      0.794515
| 52> H       -0.827414      2.353010      0.260268
| 53> H        1.521560      2.574498     -0.394616
| 54> H       -2.879698     -1.679706     -0.858237
| 55> H       -2.048479     -0.587158     -1.692229
| 56> H        3.075798     -1.374731     -0.171712
| 57> *
| 58> 
| 59> $new_job
| 60> 
| 61> %base "M0004"
| 62> %pal nprocs=8 end
| 63> %geom maxiter=75 end
| 64> * xyz -1 1
| 65> O        2.316592     -1.801093      0.257262
| 66> O        3.237912      0.735278      0.459552
| 67> N       -3.220340      0.495950      1.166711
| 68> C       -2.161748     -0.219699     -0.983872
| 69> C       -0.718864      0.036438     -0.631727
| 70> C       -3.015156     -0.614276      0.230639
| 71> C        0.149710     -1.023083     -0.368749
| 72> C       -0.223821      1.341085     -0.528716
| 73> C        1.467221     -0.749389     -0.007824
| 74> C        1.113387      1.576819     -0.162743
| 75> C        2.019486      0.543168      0.118056
| 76> H       -2.199130     -1.027518     -1.726136
| 77> H       -2.593812      0.659153     -1.479454
| 78> H       -2.555203     -1.453444      0.765034
| 79> H       -3.998147     -0.949411     -0.117394
| 80> H       -0.174426     -2.054916     -0.432357
| 81> H       -0.868152      2.193757     -0.721785
| 82> H        1.463678      2.605306     -0.089691
| 83> H       -2.298196      0.881272      1.396536
| 84> H       -3.574650      0.121507      2.044976
| 85> H        3.123093     -1.267211      0.468394
| 86> *
| 87> 
| 88> $new_job
| 89> 
| 90> %base "M0007"
| 91> %pal nprocs=8 end
| 92> %geom maxiter=75 end
| 93> * xyz -1 1
| 94> O        2.185387     -1.873294      0.196276
| 95> O        3.274745      0.479286     -0.581660
| 96> N       -3.065325     -1.019145     -1.015728
| 97> C       -2.179358      0.247270      0.951491
| 98> C       -0.721305      0.314174      0.575653
| 99> C       -3.112091      0.241150     -0.268855
|100> C        0.074096     -0.831151      0.585929
|101> C       -0.139187      1.522821      0.175318
|102> C        1.407698     -0.736242      0.192714
|103> C        1.211117      1.578657     -0.212189
|104> C        2.045798      0.451654     -0.225280
|105> H       -2.415811      1.116754      1.578446
|106> H       -2.370189     -0.631952      1.580195
|107> H       -2.864044      1.068365     -0.943814
|108> H       -4.142709      0.394257      0.068937
|109> H       -0.321742     -1.795362      0.883523
|110> H       -0.722100      2.438271      0.153397
|111> H        1.630497      2.535483     -0.519306
|112> H       -2.080775     -1.236236     -1.203773
|113> H       -3.483728     -0.875277     -1.932682
|114> H        3.026209     -1.458215     -0.120447
|115> *
|116> 
|117> $new_job
|118> 
|119> %base "M0006"
|120> %pal nprocs=8 end
|121> %geom maxiter=75 end
|122> * xyz -1 1
|123> O        2.394153     -1.874655     -0.048523
|124> O        3.462705      0.594594     -0.343502
|125> N       -4.323272     -0.240881     -0.391632
|126> C       -2.083782      0.002404      0.654556
|127> C       -0.610339      0.161734      0.400458
|128> C       -2.885648     -0.083341     -0.649455
|129> C        0.220338     -0.953543      0.297203
|130> C       -0.042677      1.430295      0.237326
|131> C        1.578880     -0.768454      0.048575
|132> C        1.333349      1.575979     -0.012973
|133> C        2.207814      0.484141     -0.117403
|134> H       -2.438551      0.844902      1.262683
|135> H       -2.252558     -0.896577      1.261886
|136> H       -2.543380     -0.930347     -1.254907
|137> H       -2.735703      0.820432     -1.250956
|138> H       -0.161654     -1.961703      0.405490
|139> H       -0.654670      2.324669      0.301418
|140> H        1.742196      2.578170     -0.132430
|141> H       -4.636562      0.533032      0.192563
|142> H       -4.462210     -1.085003      0.162605
|143> H        3.243520     -1.396202     -0.220443
|144> *
|145> 
|146> 
|147> 
|148> 
|149>                          ****END OF INPUT****
================================================================================


                 $$$$$$$$$$$$$$$$$$$$$$$$$$$$$$$$$$$$$$$$$$$$$$ 
                 $ THERE ARE  5 JOBS TO BE PROCESSED THIS RUN $
                 $$$$$$$$$$$$$$$$$$$$$$$$$$$$$$$$$$$$$$$$$$$$$$ 




                 $$$$$$$$$$$$$$$$  JOB NUMBER  1 $$$$$$$$$$$$$$


                       *****************************
                       * Geometry Optimization Run *
                       *****************************

Geometry optimization settings:
Update method            Update   .... BFGS
Choice of coordinates    CoordSys .... Z-matrix Internals
Initial Hessian          InHess   .... Almoef's Model

Convergence Tolerances:
Energy Change            TolE     ....  5.0000e-06 Eh
Max. Gradient            TolMAXG  ....  3.0000e-04 Eh/bohr
RMS Gradient             TolRMSG  ....  1.0000e-04 Eh/bohr
Max. Displacement        TolMAXD  ....  4.0000e-03 bohr
RMS Displacement         TolRMSD  ....  2.0000e-03 bohr
Strict Convergence                ....  False
------------------------------------------------------------------------------
                        ORCA OPTIMIZATION COORDINATE SETUP
------------------------------------------------------------------------------

The optimization will be done in new redundant internal coordinates
Making redundant internal coordinates   ...  (new redundants) done
Evaluating the initial hessian          ...  (Almloef) done
Evaluating the coordinates              ...  done
Calculating the B-matrix                .... done
Calculating the G-matrix                .... done
Diagonalizing the G-matrix              .... done
Small eigenvalue found = 1.912e-02
The first mode is                       ....   45
The number of degrees of freedom        ....   57

    -----------------------------------------------------------------
                    Redundant Internal Coordinates


    -----------------------------------------------------------------
         Definition                    Initial Value    Approx d2E/dq
    -----------------------------------------------------------------
      1. B(C   4,C   3)                  1.5057         0.408437   
      2. B(C   5,N   2)                  1.4668         0.422057   
      3. B(C   5,C   3)                  1.5367         0.364476   
      4. B(C   6,C   4)                  1.3947         0.614195   
      5. B(C   7,C   4)                  1.3997         0.602987   
      6. B(C   8,C   6)                  1.3934         0.617073   
      7. B(C   8,O   0)                  1.3775         0.585963   
      8. B(C   9,C   7)                  1.4059         0.589275   
      9. B(C  10,C   9)                  1.4024         0.597010   
     10. B(C  10,C   8)                  1.4113         0.577823   
     11. B(C  10,O   1)                  1.2797         0.839141   
     12. B(H  11,C   3)                  1.0978         0.349967   
     13. B(H  12,C   3)                  1.0975         0.350252   
     14. B(H  13,C   5)                  1.0956         0.352796   
     15. B(H  14,C   5)                  1.0958         0.352564   
     16. B(H  15,C   6)                  1.0836         0.368706   
     17. B(H  16,C   7)                  1.0855         0.366119   
     18. B(H  17,C   9)                  1.0890         0.361424   
     19. B(H  18,N   2)                  1.0268         0.406756   
     20. B(H  19,N   2)                  1.0194         0.418073   
     21. B(H  20,O   0)                  0.9899         0.465924   
     22. A(C   8,O   0,H  20)           97.6227         0.359739   
     23. A(H  18,N   2,H  19)          103.6534         0.298640   
     24. A(C   5,N   2,H  19)          108.9175         0.334270   
     25. A(C   5,N   2,H  18)          107.0396         0.332752   
     26. A(C   4,C   3,H  11)          109.9070         0.327573   
     27. A(C   5,C   3,H  11)          109.3848         0.321502   
     28. A(H  11,C   3,H  12)          105.7059         0.288285   
     29. A(C   5,C   3,H  12)          109.1484         0.321545   
     30. A(C   4,C   3,C   5)          113.8432         0.367390   
     31. A(C   4,C   3,H  12)          108.5265         0.327617   
     32. A(C   3,C   4,C   6)          120.8739         0.402293   
     33. A(C   6,C   4,C   7)          118.2805         0.431171   
     34. A(C   3,C   4,C   7)          120.8426         0.400989   
     35. A(C   3,C   5,H  14)          110.6397         0.321892   
     36. A(H  13,C   5,H  14)          106.8368         0.288946   
     37. A(N   2,C   5,H  14)          108.6475         0.327772   
     38. A(C   3,C   5,H  13)          108.6783         0.321926   
     39. A(N   2,C   5,H  13)          108.1411         0.327808   
     40. A(N   2,C   5,C   3)          113.6478         0.367157   
     41. A(C   8,C   6,H  15)          119.0015         0.354039   
     42. A(C   4,C   6,H  15)          121.7803         0.353759   
     43. A(C   4,C   6,C   8)          119.2180         0.432963   
     44. A(C   9,C   7,H  16)          118.3467         0.350871   
     45. A(C   4,C   7,H  16)          120.8355         0.352238   
     46. A(C   4,C   7,C   9)          120.8177         0.427978   
     47. A(O   0,C   8,C   6)          118.8705         0.426519   
     48. A(C   6,C   8,C  10)          124.9755         0.428244   
     49. A(O   0,C   8,C  10)          116.1539         0.421536   
     50. A(C  10,C   9,H  17)          118.2948         0.350879   
     51. A(C   7,C   9,H  17)          118.8560         0.350107   
     52. A(C   7,C   9,C  10)          122.8491         0.427214   
     53. A(C   8,C  10,C   9)          113.8582         0.425715   
     54. A(O   1,C  10,C   9)          123.8336         0.452371   
     55. A(O   1,C  10,C   8)          122.3082         0.449694   
     56. D(C   6,C   4,C   3,C   5)    -70.1943         0.012359   
     57. D(C   6,C   4,C   3,H  11)    166.7135         0.012359   
     58. D(C   7,C   4,C   3,C   5)    109.1691         0.012359   
     59. D(C   7,C   4,C   3,H  12)   -129.0733         0.012359   
     60. D(C   7,C   4,C   3,H  11)    -13.9231         0.012359   
     61. D(C   6,C   4,C   3,H  12)     51.5633         0.012359   
     62. D(N   2,C   5,C   3,H  11)     62.5645         0.010640   
     63. D(C   3,C   5,N   2,H  18)     66.9177         0.015188   
     64. D(H  14,C   5,N   2,H  19)   -168.1871         0.015188   
     65. D(H  14,C   5,N   2,H  18)    -56.7167         0.015188   
     66. D(H  14,C   5,C   3,H  11)   -174.8924         0.010640   
     67. D(N   2,C   5,C   3,C   4)    -60.8122         0.010640   
     68. D(H  13,C   5,C   3,H  12)     57.3226         0.010640   
     69. D(N   2,C   5,C   3,H  12)    177.7753         0.010640   
     70. D(H  13,C   5,C   3,H  11)    -57.8882         0.010640   
     71. D(C   3,C   5,N   2,H  19)    -44.5527         0.015188   
     72. D(H  13,C   5,N   2,H  18)   -172.3272         0.015188   
     73. D(H  14,C   5,C   3,C   4)     61.7308         0.010640   
     74. D(H  13,C   5,N   2,H  19)     76.2023         0.015188   
     75. D(H  14,C   5,C   3,H  12)    -59.6817         0.010640   
     76. D(H  13,C   5,C   3,C   4)    178.7351         0.010640   
     77. D(H  15,C   6,C   4,C   7)    179.8545         0.026074   
     78. D(H  15,C   6,C   4,C   3)     -0.7661         0.026074   
     79. D(C   8,C   6,C   4,C   3)    179.0799         0.026074   
     80. D(C   8,C   6,C   4,C   7)     -0.2995         0.026074   
     81. D(H  16,C   7,C   4,C   6)   -179.8395         0.025079   
     82. D(H  16,C   7,C   4,C   3)      0.7809         0.025079   
     83. D(C   9,C   7,C   4,C   6)      0.2982         0.025079   
     84. D(C   9,C   7,C   4,C   3)   -179.0814         0.025079   
     85. D(C  10,C   8,O   0,H  20)      0.0288         0.025002   
     86. D(C   6,C   8,O   0,H  20)    179.9336         0.025002   
     87. D(C  10,C   8,C   6,H  15)    179.9101         0.026334   
     88. D(C  10,C   8,C   6,C   4)      0.0598         0.026334   
     89. D(O   0,C   8,C   6,H  15)      0.0144         0.026334   
     90. D(O   0,C   8,C   6,C   4)   -179.8359         0.026334   
     91. D(H  17,C   9,C   7,H  16)      0.0559         0.023894   
     92. D(H  17,C   9,C   7,C   4)    179.9216         0.023894   
     93. D(C  10,C   9,C   7,H  16)   -179.9158         0.023894   
     94. D(C  10,C   9,C   7,C   4)     -0.0502         0.023894   
     95. D(C   8,C  10,C   9,C   7)     -0.1813         0.024558   
     96. D(O   1,C  10,C   9,H  17)     -0.1295         0.024558   
     97. D(O   1,C  10,C   9,C   7)    179.8424         0.024558   
     98. D(C   9,C  10,C   8,C   6)      0.1790         0.022931   
     99. D(C   9,C  10,C   8,O   0)   -179.9228         0.022931   
    100. D(O   1,C  10,C   8,C   6)   -179.8444         0.022931   
    101. D(C   8,C  10,C   9,H  17)    179.8468         0.024558   
    102. D(O   1,C  10,C   8,O   0)      0.0539         0.022931   
    -----------------------------------------------------------------

Number of atoms                         .... 21
Number of degrees of freedom            .... 102

         *************************************************************
         *                GEOMETRY OPTIMIZATION CYCLE   1            *
         *************************************************************
---------------------------------
CARTESIAN COORDINATES (ANGSTROEM)
---------------------------------
  O      2.249561   -1.841863   -0.165908
  O      3.249468    0.657249   -0.451620
  N     -3.084232    0.242549   -1.357338
  C     -2.188716   -0.077980    0.969998
  C     -0.740375    0.117388    0.607627
  C     -3.047488   -0.629768   -0.178708
  C      0.098468   -0.976667    0.396777
  C     -0.204397    1.402002    0.460742
  C      1.428280   -0.756106    0.043963
  C      1.143233    1.583680    0.103622
  C      2.020984    0.513725   -0.123158
  H     -2.616910    0.869389    1.322475
  H     -2.244929   -0.765330    1.823814
  H     -4.073913   -0.759665    0.181667
  H     -2.691449   -1.619393   -0.486219
  H     -0.256297   -1.995555    0.497450
  H     -0.819276    2.282701    0.617511
  H      1.526577    2.597370   -0.003164
  H     -2.138388    0.248324   -1.757011
  H     -3.222242    1.205217   -1.051837
  H      3.074280   -1.341635   -0.388278

----------------------------
CARTESIAN COORDINATES (A.U.)
----------------------------
  NO LB      ZA    FRAG     MASS         X           Y           Z
   0 O     8.0000    0    15.999    4.251054   -3.480617   -0.313521
   1 O     8.0000    0    15.999    6.140605    1.242021   -0.853438
   2 N     7.0000    0    14.007   -5.828354    0.458351   -2.564997
   3 C     6.0000    0    12.011   -4.136074   -0.147361    1.833031
   4 C     6.0000    0    12.011   -1.399106    0.221831    1.148249
   5 C     6.0000    0    12.011   -5.758918   -1.190089   -0.337709
   6 C     6.0000    0    12.011    0.186078   -1.845633    0.749800
   7 C     6.0000    0    12.011   -0.386254    2.649400    0.870676
   8 C     6.0000    0    12.011    2.699058   -1.428833    0.083078
   9 C     6.0000    0    12.011    2.160397    2.992721    0.195817
  10 C     6.0000    0    12.011    3.819106    0.970800   -0.232735
  11 H     1.0000    0     1.008   -4.945243    1.642907    2.499116
  12 H     1.0000    0     1.008   -4.242301   -1.446264    3.446509
  13 H     1.0000    0     1.008   -7.698580   -1.435559    0.343301
  14 H     1.0000    0     1.008   -5.086102   -3.060209   -0.918821
  15 H     1.0000    0     1.008   -0.484331   -3.771052    0.940044
  16 H     1.0000    0     1.008   -1.548207    4.313680    1.166927
  17 H     1.0000    0     1.008    2.884812    4.908318   -0.005979
  18 H     1.0000    0     1.008   -4.040968    0.469264   -3.320270
  19 H     1.0000    0     1.008   -6.089155    2.277530   -1.987684
  20 H     1.0000    0     1.008    5.809547   -2.535323   -0.733739

--------------------------------
INTERNAL COORDINATES (ANGSTROEM)
--------------------------------
 O      0   0   0     0.000000000000     0.00000000     0.00000000
 O      1   0   0     2.706844314721     0.00000000     0.00000000
 N      1   2   0     5.849241540362    89.21728150     0.00000000
 C      3   1   2     2.514195816358    56.02865706   264.72734055
 C      4   3   1     1.505713468541    95.92883293    28.61096242
 C      3   1   2     1.466784151443    66.51885507   227.53346210
 C      5   4   3     1.394658253542   120.87391087   261.83210662
 C      5   4   3     1.399671657463   120.84259906    81.19555951
 C      1   2   3     1.377467451757    60.56679486   334.62443466
 C      8   5   4     1.405933215691   120.81765436   180.91857495
 C      2   1   3     1.279710655686    60.97109498    25.40356014
 H      4   3   1     1.097769629442    92.76659729   138.96033254
 H      4   3   1     1.097548033448   141.41749220   258.63941438
 H      6   3   1     1.095578227175   108.14109311   184.31688471
 H      6   3   1     1.095757466444   108.64752176   299.92742920
 H      7   5   4     1.083570955082   121.78032834   359.23394716
 H      8   5   4     1.085487647375   120.83554402     0.78087969
 H     10   8   5     1.089001050611   118.85601595   179.92156234
 H      3   1   2     1.026836272192    40.65317097    52.46175714
 H      3   1   2     1.019366126240   113.51238260   328.86460409
 H      1   2   3     0.989867616323    37.05596599   154.71246535

---------------------------
INTERNAL COORDINATES (A.U.)
---------------------------
 O      0   0   0     0.000000000000     0.00000000     0.00000000
 O      1   0   0     5.115194441984     0.00000000     0.00000000
 N      1   2   0    11.053464602439    89.21728150     0.00000000
 C      3   1   2     4.751141539968    56.02865706   264.72734055
 C      4   3   1     2.845386091699    95.92883293    28.61096242
 C      3   1   2     2.771820343804    66.51885507   227.53346210
 C      5   4   3     2.635522149608   120.87391087   261.83210662
 C      5   4   3     2.644996110017   120.84259906    81.19555951
 C      1   2   3     2.603036242212    60.56679486   334.62443466
 C      8   5   4     2.656828740240   120.81765436   180.91857495
 C      2   1   3     2.418302669907    60.97109498    25.40356014
 H      4   3   1     2.074483957782    92.76659729   138.96033254
 H      4   3   1     2.074065202040   141.41749220   258.63941438
 H      6   3   1     2.070342807647   108.14109311   184.31688471
 H      6   3   1     2.070681520778   108.64752176   299.92742920
 H      7   5   4     2.047652351777   121.78032834   359.23394716
 H      8   5   4     2.051274375293   120.83554402     0.78087969
 H     10   8   5     2.057913745207   118.85601595   179.92156234
 H      3   1   2     1.940439338820    40.65317097    52.46175714
 H      3   1   2     1.926322808789   113.51238260   328.86460409
 H      1   2   3     1.870578703688    37.05596599   154.71246535

---------------------
BASIS SET INFORMATION
---------------------
There are 4 groups of distinct atoms

 Group   1 Type O   : 11s6p2d1f contracted to 5s3p2d1f pattern {62111/411/11/1}
 Group   2 Type N   : 11s6p2d1f contracted to 5s3p2d1f pattern {62111/411/11/1}
 Group   3 Type C   : 11s6p2d1f contracted to 5s3p2d1f pattern {62111/411/11/1}
 Group   4 Type H   : 5s1p contracted to 3s1p pattern {311/1}

Atom   0O    basis set group =>   1
Atom   1O    basis set group =>   1
Atom   2N    basis set group =>   2
Atom   3C    basis set group =>   3
Atom   4C    basis set group =>   3
Atom   5C    basis set group =>   3
Atom   6C    basis set group =>   3
Atom   7C    basis set group =>   3
Atom   8C    basis set group =>   3
Atom   9C    basis set group =>   3
Atom  10C    basis set group =>   3
Atom  11H    basis set group =>   4
Atom  12H    basis set group =>   4
Atom  13H    basis set group =>   4
Atom  14H    basis set group =>   4
Atom  15H    basis set group =>   4
Atom  16H    basis set group =>   4
Atom  17H    basis set group =>   4
Atom  18H    basis set group =>   4
Atom  19H    basis set group =>   4
Atom  20H    basis set group =>   4
---------------------------------
AUXILIARY/J BASIS SET INFORMATION
---------------------------------
There are 4 groups of distinct atoms

 Group   1 Type O   : 12s5p4d2f1g contracted to 6s4p3d1f1g pattern {711111/2111/211/2/1}
 Group   2 Type N   : 12s5p4d2f1g contracted to 6s4p3d1f1g pattern {711111/2111/211/2/1}
 Group   3 Type C   : 12s5p4d2f1g contracted to 6s4p3d1f1g pattern {711111/2111/211/2/1}
 Group   4 Type H   : 5s2p1d contracted to 3s1p1d pattern {311/2/1}

Atom   0O    basis set group =>   1
Atom   1O    basis set group =>   1
Atom   2N    basis set group =>   2
Atom   3C    basis set group =>   3
Atom   4C    basis set group =>   3
Atom   5C    basis set group =>   3
Atom   6C    basis set group =>   3
Atom   7C    basis set group =>   3
Atom   8C    basis set group =>   3
Atom   9C    basis set group =>   3
Atom  10C    basis set group =>   3
Atom  11H    basis set group =>   4
Atom  12H    basis set group =>   4
Atom  13H    basis set group =>   4
Atom  14H    basis set group =>   4
Atom  15H    basis set group =>   4
Atom  16H    basis set group =>   4
Atom  17H    basis set group =>   4
Atom  18H    basis set group =>   4
Atom  19H    basis set group =>   4
Atom  20H    basis set group =>   4


           ************************************************************
           *        Program running with 8 parallel MPI-processes     *
           *              working on a common directory               *
           ************************************************************
------------------------------------------------------------------------------
                           ORCA GTO INTEGRAL CALCULATION
                           -- RI-GTO INTEGRALS CHOSEN --
------------------------------------------------------------------------------
------------------------------------------------------------------------------
                   ___                                                        
                  /   \      - P O W E R E D   B Y -                         
                 /     \                                                     
                 |  |  |   _    _      __       _____    __    __             
                 |  |  |  | |  | |    /  \     |  _  \  |  |  /  |          
                  \  \/   | |  | |   /    \    | | | |  |  | /  /          
                 / \  \   | |__| |  /  /\  \   | |_| |  |  |/  /          
                |  |  |   |  __  | /  /__\  \  |    /   |      \           
                |  |  |   | |  | | |   __   |  |    \   |  |\   \          
                \     /   | |  | | |  |  |  |  | |\  \  |  | \   \       
                 \___/    |_|  |_| |__|  |__|  |_| \__\ |__|  \__/        
                                                                              
                      - O R C A' S   B I G   F R I E N D -                    
                                      &                                       
                       - I N T E G R A L  F E E D E R -                       
                                                                              
 v1 FN, 2020, v2 2021                                                         
------------------------------------------------------------------------------


Reading SHARK input file M0005.SHARKINP.tmp ... ok
----------------------
SHARK INTEGRAL PACKAGE
----------------------

Number of atoms                             ...     21
Number of basis functions                   ...    401
Number of shells                            ...    161
Maximum angular momentum                    ...      3
Integral batch strategy                     ... SHARK/LIBINT Hybrid
RI-J (if used) integral strategy            ... SPLIT-RIJ (Revised 2003 algorithm where possible)
Printlevel                                  ...      1
Contraction scheme used                     ... SEGMENTED contraction
Coulomb Range Separation                    ... NOT USED
Exchange Range Separation                   ... NOT USED
Finite Nucleus Model                        ... NOT USED
Auxiliary Coulomb fitting basis             ... AVAILABLE
   # of basis functions in Aux-J            ...    649
   # of shells in Aux-J                     ...    215
   Maximum angular momentum in Aux-J        ...      4
Auxiliary J/K fitting basis                 ... NOT available
Auxiliary Correlation fitting basis         ... NOT available
Auxiliary 'external' fitting basis          ... NOT available
Integral threshold                          ...     2.500000e-11
Primitive cut-off                           ...     2.500000e-12
Primitive pair pre-selection threshold      ...     2.500000e-12

Calculating pre-screening integrals         ... done (  0.1 sec) Dimension = 161
Organizing shell pair data                  ... done (  0.1 sec)
Shell pair information
Total number of shell pairs                 ...     13041
Shell pairs after pre-screening             ...     11189
Total number of primitive shell pairs       ...     39612
Primitive shell pairs kept                  ...     24571
          la=0 lb=0:   3012 shell pairs
          la=1 lb=0:   3196 shell pairs
          la=1 lb=1:    867 shell pairs
          la=2 lb=0:   1593 shell pairs
          la=2 lb=1:    848 shell pairs
          la=2 lb=2:    221 shell pairs
          la=3 lb=0:    769 shell pairs
          la=3 lb=1:    417 shell pairs
          la=3 lb=2:    209 shell pairs
          la=3 lb=3:     57 shell pairs

Calculating one electron integrals          ... done (  0.0 sec)
Calculating RI/J V-Matrix + Cholesky decomp.... done (  0.0 sec)
Calculating Nuclear repulsion               ... done (  0.0 sec) ENN=    590.438307839059 Eh

SHARK setup successfully completed in   0.2 seconds

Maximum memory used throughout the entire GTOINT-calculation: 19.4 MB


           ************************************************************
           *        Program running with 8 parallel MPI-processes     *
           *              working on a common directory               *
           ************************************************************
-------------------------------------------------------------------------------
                                 ORCA SCF
-------------------------------------------------------------------------------

------------
SCF SETTINGS
------------
Hamiltonian:
 Density Functional     Method          .... DFT(GTOs)
 Exchange Functional    Exchange        .... PBE
   PBE kappa parameter   XKappa         ....  0.804000
   PBE mue parameter    XMuePBE         ....  0.219520
 Correlation Functional Correlation     .... PBE
   PBE beta parameter  CBetaPBE         ....  0.066725
 LDA part of GGA corr.  LDAOpt          .... PW91-LDA
 Gradients option       PostSCFGGA      .... off
   Density functional embedding theory  .... OFF
   NL short-range parameter             ....  6.400000
 RI-approximation to the Coulomb term is turned on
   Number of AuxJ basis functions       .... 649


General Settings:
 Integral files         IntName         .... M0005
 Hartree-Fock type      HFTyp           .... RHF
 Total Charge           Charge          ....   -1
 Multiplicity           Mult            ....    1
 Number of Electrons    NEL             ....   82
 Basis Dimension        Dim             ....  401
 Nuclear Repulsion      ENuc            ....    590.4383078391 Eh

Convergence Acceleration:
 DIIS                   CNVDIIS         .... on
   Start iteration      DIISMaxIt       ....    12
   Startup error        DIISStart       ....  0.200000
   # of expansion vecs  DIISMaxEq       ....     5
   Bias factor          DIISBfac        ....   1.050
   Max. coefficient     DIISMaxC        ....  10.000
 Trust-Rad. Augm. Hess. CNVTRAH         .... auto
   Auto Start mean grad. ratio tolernc. ....  1.125000
   Auto Start start iteration           ....    20
   Auto Start num. interpolation iter.  ....    10
   Max. Number of Micro iterations      ....    16
   Max. Number of Macro iterations      .... Maxiter - #DIIS iter
   Number of Davidson start vectors     ....     2
   Converg. threshold I  (grad. norm)   ....   1.000e-05
   Converg. threshold II (energy diff.) ....   1.000e-08
   Grad. Scal. Fac. for Micro threshold ....   0.100
   Minimum threshold for Micro iter.    ....   0.010
   NR start threshold (gradient norm)   ....   0.001
   Initial trust radius                 ....   0.400
   Minimum AH scaling param. (alpha)    ....   1.000
   Maximum AH scaling param. (alpha)    .... 1000.000
   Orbital update algorithm             .... Taylor
   White noise on init. David. guess    .... on
   Maximum white noise                  ....   0.010
   Quad. conv. algorithm                .... NR
 SOSCF                  CNVSOSCF        .... on
   Start iteration      SOSCFMaxIt      ....   150
   Startup grad/error   SOSCFStart      ....  0.003300
 Level Shifting         CNVShift        .... on
   Level shift para.    LevelShift      ....    0.2500
   Turn off err/grad.   ShiftErr        ....    0.0010
 Zerner damping         CNVZerner       .... off
 Static damping         CNVDamp         .... on
   Fraction old density DampFac         ....    0.7000
   Max. Damping (<1)    DampMax         ....    0.9800
   Min. Damping (>=0)   DampMin         ....    0.0000
   Turn off err/grad.   DampErr         ....    0.1000
 Fernandez-Rico         CNVRico         .... off

SCF Procedure:
 Maximum # iterations   MaxIter         ....   125
 SCF integral mode      SCFMode         .... Direct
   Integral package                     .... SHARK and LIBINT hybrid scheme
 Reset frequency        DirectResetFreq ....    20
 Integral Threshold     Thresh          ....  2.500e-11 Eh
 Primitive CutOff       TCut            ....  2.500e-12 Eh

Convergence Tolerance:
 Convergence Check Mode ConvCheckMode   .... Total+1el-Energy
 Convergence forced     ConvForced      .... 0
 Energy Change          TolE            ....  1.000e-08 Eh
 1-El. energy change                    ....  1.000e-05 Eh
 Orbital Gradient       TolG            ....  1.000e-05
 Orbital Rotation angle TolX            ....  1.000e-05
 DIIS Error             TolErr          ....  5.000e-07


Diagonalization of the overlap matrix:
Smallest eigenvalue                        ... 1.021e-05
Time for diagonalization                   ...    0.023 sec
Threshold for overlap eigenvalues          ... 1.000e-08
Number of eigenvalues below threshold      ... 0
Time for construction of square roots      ...    0.017 sec
Total time needed                          ...    0.041 sec

Time for model grid setup =    0.088 sec

------------------------------
INITIAL GUESS: MODEL POTENTIAL
------------------------------
Loading Hartree-Fock densities                     ... done
Calculating cut-offs                               ... done
Initializing the effective Hamiltonian             ... done
Setting up the integral package (SHARK)            ... done
Starting the Coulomb interaction                   ... done (   0.1 sec)
Reading the grid                                   ... done
Mapping shells                                     ... done
Starting the XC term evaluation                    ... done (   0.1 sec)
  promolecular density results
     # of electrons  =     80.991535115
     EX              =    -66.699733493
     EC              =     -2.703985876
     EX+EC           =    -69.403719369
Transforming the Hamiltonian                       ... done (   0.0 sec)
Diagonalizing the Hamiltonian                      ... done (   0.0 sec)
Back transforming the eigenvectors                 ... done (   0.0 sec)
Now organizing SCF variables                       ... done
                      ------------------
                      INITIAL GUESS DONE (   0.3 sec)
                      ------------------
-------------------
DFT GRID GENERATION
-------------------

General Integration Accuracy     IntAcc      ... 4.388
Radial Grid Type                 RadialGrid  ... OptM3 with GC (2021)
Angular Grid (max. ang.)         AngularGrid ... 4 (Lebedev-302)
Angular grid pruning method      GridPruning ... 4 (adaptive)
Weight generation scheme         WeightScheme... Becke
Basis function cutoff            BFCut       ... 1.0000e-11
Integration weight cutoff        WCut        ... 1.0000e-14
Angular grids for H and He will be reduced by one unit
Partially contracted basis set               ... off
Rotationally invariant grid construction     ... off

Total number of grid points                  ...    98107
Total number of batches                      ...     1543
Average number of points per batch           ...       63
Average number of grid points per atom       ...     4672
Time for grid setup =    0.465 sec

--------------
SCF ITERATIONS
--------------
ITER       Energy         Delta-E        Max-DP      RMS-DP      [F,P]     Damp
               ***  Starting incremental Fock matrix formation  ***
  0   -515.2795903598   0.000000000000 1.03437703  0.00807859  0.3308642 0.7000
  1   -515.4896822420  -0.210091882225 0.73251288  0.00616595  0.0987674 0.7000
                               ***Turning on DIIS***
  2   -515.5558816751  -0.066199433051 0.34523774  0.00433126  0.0261319 0.0000
  3   -515.6647247395  -0.108843064395 0.70619660  0.00570572  0.0607592 0.0000
  4   -515.6936174356  -0.028892696170 0.14117945  0.00119127  0.0320653 0.0000
  5   -515.6969364159  -0.003318980228 0.08195070  0.00070727  0.0092380 0.0000
                      *** Initiating the SOSCF procedure ***
                           *** Shutting down DIIS ***
                      *** Re-Reading the Fockian *** 
                      *** Removing any level shift *** 
ITER      Energy       Delta-E        Grad      Rot      Max-DP    RMS-DP
  6   -515.69720233  -0.0002659136  0.000420  0.000420  0.020603  0.000219
               *** Restarting incremental Fock matrix formation ***
  7   -515.69722485  -0.0000225245  0.000304  0.002762  0.012580  0.000174
  8   -515.69722138   0.0000034776  0.000494  0.001741  0.004474  0.000051
  9   -515.69723134  -0.0000099671  0.000258  0.001493  0.003707  0.000047
 10   -515.69722885   0.0000024955  0.000355  0.000678  0.002622  0.000025
 11   -515.69723228  -0.0000034274  0.000059  0.000443  0.001960  0.000026
 12   -515.69723188   0.0000004000  0.000131  0.000237  0.001394  0.000011
 13   -515.69723236  -0.0000004881  0.000008  0.000106  0.000691  0.000009
 14   -515.69723235   0.0000000108  0.000009  0.000031  0.000220  0.000003
 15   -515.69723237  -0.0000000169  0.000003  0.000031  0.000357  0.000005
 16   -515.69723236   0.0000000080  0.000004  0.000012  0.000146  0.000002
                  ***Gradient check signals convergence***
              ***Rediagonalizing the Fockian in SOSCF/NRSCF***

               *****************************************************
               *                     SUCCESS                       *
               *           SCF CONVERGED AFTER  17 CYCLES          *
               *****************************************************


----------------
TOTAL SCF ENERGY
----------------

Total Energy       :         -515.69723237 Eh          -14032.83511 eV

Components:
Nuclear Repulsion  :          590.43830784 Eh           16066.64317 eV
Electronic Energy  :        -1106.13554021 Eh          -30099.47828 eV
One Electron Energy:        -1885.81229695 Eh          -51315.56143 eV
Two Electron Energy:          779.67675674 Eh           21216.08316 eV

Virial components:
Potential Energy   :        -1029.44369805 Eh          -28012.58716 eV
Kinetic Energy     :          513.74646569 Eh           13979.75205 eV
Virial Ratio       :            2.00379714


DFT components:
N(Alpha)           :       41.000001085976 electrons
N(Beta)            :       41.000001085976 electrons
N(Total)           :       82.000002171951 electrons
E(X)               :      -68.217407185822 Eh       
E(C)               :       -2.742634766025 Eh       
E(XC)              :      -70.960041951847 Eh       
DFET-embed. en.    :        0.000000000000 Eh       

---------------
SCF CONVERGENCE
---------------

  Last Energy change         ...   -5.4106e-09  Tolerance :   1.0000e-08
  Last MAX-Density change    ...    1.3336e-04  Tolerance :   1.0000e-07
  Last RMS-Density change    ...    1.8204e-06  Tolerance :   5.0000e-09
  Last Orbital Gradient      ...    1.5555e-06  Tolerance :   1.0000e-05
  Last Orbital Rotation      ...    1.0919e-05  Tolerance :   1.0000e-05

             **** THE GBW FILE WAS UPDATED (M0005.gbw) ****
             **** DENSITY M0005.scfp WAS UPDATED ****
             **** ENERGY FILE WAS UPDATED (M0005.en.tmp) ****
             **** THE GBW FILE WAS UPDATED (M0005.gbw) ****
             **** DENSITY M0005.scfp WAS UPDATED ****
----------------
ORBITAL ENERGIES
----------------

  NO   OCC          E(Eh)            E(eV) 
   0   2.0000     -18.605161      -506.2722 
   1   2.0000     -18.513940      -503.7899 
   2   2.0000     -13.846440      -376.7808 
   3   2.0000      -9.784410      -266.2473 
   4   2.0000      -9.757744      -265.5217 
   5   2.0000      -9.751987      -265.3650 
   6   2.0000      -9.744054      -265.1492 
   7   2.0000      -9.722298      -264.5572 
   8   2.0000      -9.718140      -264.4440 
   9   2.0000      -9.717121      -264.4163 
  10   2.0000      -9.701021      -263.9782 
  11   2.0000      -0.800891       -21.7934 
  12   2.0000      -0.712445       -19.3866 
  13   2.0000      -0.688549       -18.7364 
  14   2.0000      -0.605831       -16.4855 
  15   2.0000      -0.544995       -14.8301 
  16   2.0000      -0.499831       -13.6011 
  17   2.0000      -0.476230       -12.9589 
  18   2.0000      -0.420655       -11.4466 
  19   2.0000      -0.377849       -10.2818 
  20   2.0000      -0.368825       -10.0362 
  21   2.0000      -0.327161        -8.9025 
  22   2.0000      -0.295811        -8.0494 
  23   2.0000      -0.276453        -7.5227 
  24   2.0000      -0.270367        -7.3571 
  25   2.0000      -0.255501        -6.9525 
  26   2.0000      -0.246764        -6.7148 
  27   2.0000      -0.220048        -5.9878 
  28   2.0000      -0.215901        -5.8750 
  29   2.0000      -0.201368        -5.4795 
  30   2.0000      -0.196048        -5.3347 
  31   2.0000      -0.174466        -4.7475 
  32   2.0000      -0.172477        -4.6933 
  33   2.0000      -0.153741        -4.1835 
  34   2.0000      -0.132697        -3.6109 
  35   2.0000      -0.131322        -3.5734 
  36   2.0000      -0.108617        -2.9556 
  37   2.0000      -0.086016        -2.3406 
  38   2.0000      -0.041911        -1.1404 
  39   2.0000      -0.021439        -0.5834 
  40   2.0000       0.012525         0.3408 
  41   0.0000       0.122144         3.3237 
  42   0.0000       0.131730         3.5846 
  43   0.0000       0.142901         3.8885 
  44   0.0000       0.156953         4.2709 
  45   0.0000       0.166975         4.5436 
  46   0.0000       0.177768         4.8373 
  47   0.0000       0.188572         5.1313 
  48   0.0000       0.197240         5.3672 
  49   0.0000       0.206231         5.6118 
  50   0.0000       0.212036         5.7698 
  51   0.0000       0.233668         6.3584 
  52   0.0000       0.238923         6.5014 
  53   0.0000       0.257218         6.9993 
  54   0.0000       0.264697         7.2028 
  55   0.0000       0.281013         7.6467 
  56   0.0000       0.286910         7.8072 
  57   0.0000       0.305780         8.3207 
  58   0.0000       0.310928         8.4608 
  59   0.0000       0.316962         8.6250 
  60   0.0000       0.333721         9.0810 
  61   0.0000       0.345074         9.3899 
  62   0.0000       0.353559         9.6208 
  63   0.0000       0.361550         9.8383 
  64   0.0000       0.365744         9.9524 
  65   0.0000       0.379290        10.3210 
  66   0.0000       0.383984        10.4487 
  67   0.0000       0.394852        10.7445 
  68   0.0000       0.399690        10.8761 
  69   0.0000       0.407022        11.0756 
  70   0.0000       0.412587        11.2271 
  71   0.0000       0.431583        11.7440 
  72   0.0000       0.439186        11.9509 
  73   0.0000       0.448265        12.1979 
  74   0.0000       0.454790        12.3755 
  75   0.0000       0.459512        12.5040 
  76   0.0000       0.463488        12.6122 
  77   0.0000       0.471132        12.8201 
  78   0.0000       0.476882        12.9766 
  79   0.0000       0.488103        13.2820 
  80   0.0000       0.496322        13.5056 
  81   0.0000       0.501427        13.6445 
  82   0.0000       0.514728        14.0065 
  83   0.0000       0.519366        14.1327 
  84   0.0000       0.522411        14.2155 
  85   0.0000       0.533207        14.5093 
  86   0.0000       0.536186        14.5904 
  87   0.0000       0.548471        14.9246 
  88   0.0000       0.552781        15.0419 
  89   0.0000       0.563705        15.3392 
  90   0.0000       0.569738        15.5034 
  91   0.0000       0.578698        15.7472 
  92   0.0000       0.585050        15.9200 
  93   0.0000       0.589584        16.0434 
  94   0.0000       0.599713        16.3190 
  95   0.0000       0.603557        16.4236 
  96   0.0000       0.616364        16.7721 
  97   0.0000       0.627360        17.0713 
  98   0.0000       0.639295        17.3961 
  99   0.0000       0.654410        17.8074 
 100   0.0000       0.657674        17.8962 
 101   0.0000       0.675815        18.3899 
 102   0.0000       0.689995        18.7757 
 103   0.0000       0.702164        19.1068 
 104   0.0000       0.726977        19.7820 
 105   0.0000       0.737504        20.0685 
 106   0.0000       0.744010        20.2455 
 107   0.0000       0.754727        20.5372 
 108   0.0000       0.761055        20.7094 
 109   0.0000       0.778298        21.1786 
 110   0.0000       0.782722        21.2990 
 111   0.0000       0.794832        21.6285 
 112   0.0000       0.823273        22.4024 
 113   0.0000       0.829419        22.5696 
 114   0.0000       0.843800        22.9610 
 115   0.0000       0.850213        23.1355 
 116   0.0000       0.857044        23.3213 
 117   0.0000       0.888426        24.1753 
 118   0.0000       0.898794        24.4574 
 119   0.0000       0.909540        24.7499 
 120   0.0000       0.916602        24.9420 
 121   0.0000       0.928785        25.2735 
 122   0.0000       0.958632        26.0857 
 123   0.0000       0.963617        26.2214 
 124   0.0000       0.974630        26.5210 
 125   0.0000       0.986718        26.8500 
 126   0.0000       0.991305        26.9748 
 127   0.0000       1.004575        27.3359 
 128   0.0000       1.022282        27.8177 
 129   0.0000       1.028982        28.0000 
 130   0.0000       1.059386        28.8274 
 131   0.0000       1.073160        29.2022 
 132   0.0000       1.094874        29.7930 
 133   0.0000       1.105813        30.0907 
 134   0.0000       1.140789        31.0425 
 135   0.0000       1.161397        31.6032 
 136   0.0000       1.168726        31.8027 
 137   0.0000       1.193253        32.4701 
 138   0.0000       1.209349        32.9081 
 139   0.0000       1.213452        33.0197 
 140   0.0000       1.220637        33.2152 
 141   0.0000       1.253764        34.1166 
 142   0.0000       1.263622        34.3849 
 143   0.0000       1.277505        34.7627 
 144   0.0000       1.296631        35.2831 
 145   0.0000       1.317591        35.8535 
 146   0.0000       1.329286        36.1717 
 147   0.0000       1.337921        36.4067 
 148   0.0000       1.341429        36.5021 
 149   0.0000       1.360335        37.0166 
 150   0.0000       1.369762        37.2731 
 151   0.0000       1.388417        37.7808 
 152   0.0000       1.417663        38.5766 
 153   0.0000       1.431518        38.9536 
 154   0.0000       1.445140        39.3243 
 155   0.0000       1.455239        39.5991 
 156   0.0000       1.463922        39.8353 
 157   0.0000       1.471086        40.0303 
 158   0.0000       1.504069        40.9278 
 159   0.0000       1.504604        40.9424 
 160   0.0000       1.528983        41.6057 
 161   0.0000       1.560124        42.4531 
 162   0.0000       1.570876        42.7457 
 163   0.0000       1.594558        43.3901 
 164   0.0000       1.607108        43.7316 
 165   0.0000       1.618758        44.0487 
 166   0.0000       1.631037        44.3828 
 167   0.0000       1.634674        44.4817 
 168   0.0000       1.643887        44.7324 
 169   0.0000       1.661135        45.2018 
 170   0.0000       1.683903        45.8213 
 171   0.0000       1.687132        45.9092 
 172   0.0000       1.717786        46.7433 
 173   0.0000       1.732737        47.1502 
 174   0.0000       1.746951        47.5369 
 175   0.0000       1.779395        48.4198 
 176   0.0000       1.789092        48.6837 
 177   0.0000       1.806047        49.1450 
 178   0.0000       1.811343        49.2892 
 179   0.0000       1.826853        49.7112 
 180   0.0000       1.830609        49.8134 
 181   0.0000       1.848377        50.2969 
 182   0.0000       1.864830        50.7446 
 183   0.0000       1.887492        51.3613 
 184   0.0000       1.894417        51.5497 
 185   0.0000       1.922838        52.3231 
 186   0.0000       1.941129        52.8208 
 187   0.0000       1.944252        52.9058 
 188   0.0000       1.962396        53.3995 
 189   0.0000       1.966063        53.4993 
 190   0.0000       1.985164        54.0191 
 191   0.0000       2.030560        55.2543 
 192   0.0000       2.041660        55.5564 
 193   0.0000       2.053326        55.8738 
 194   0.0000       2.059578        56.0440 
 195   0.0000       2.067234        56.2523 
 196   0.0000       2.085680        56.7543 
 197   0.0000       2.098402        57.1004 
 198   0.0000       2.111746        57.4635 
 199   0.0000       2.126028        57.8522 
 200   0.0000       2.136201        58.1290 
 201   0.0000       2.151730        58.5516 
 202   0.0000       2.169816        59.0437 
 203   0.0000       2.176681        59.2305 
 204   0.0000       2.207941        60.0811 
 205   0.0000       2.233733        60.7830 
 206   0.0000       2.242095        61.0105 
 207   0.0000       2.253321        61.3160 
 208   0.0000       2.268099        61.7181 
 209   0.0000       2.302210        62.6463 
 210   0.0000       2.323812        63.2341 
 211   0.0000       2.332277        63.4645 
 212   0.0000       2.352634        64.0184 
 213   0.0000       2.360885        64.2430 
 214   0.0000       2.377433        64.6932 
 215   0.0000       2.379491        64.7492 
 216   0.0000       2.416198        65.7481 
 217   0.0000       2.445747        66.5522 
 218   0.0000       2.476030        67.3762 
 219   0.0000       2.493942        67.8636 
 220   0.0000       2.507492        68.2323 
 221   0.0000       2.525592        68.7249 
 222   0.0000       2.532067        68.9011 
 223   0.0000       2.548304        69.3429 
 224   0.0000       2.558460        69.6192 
 225   0.0000       2.572874        70.0115 
 226   0.0000       2.594408        70.5974 
 227   0.0000       2.617345        71.2216 
 228   0.0000       2.633250        71.6544 
 229   0.0000       2.650781        72.1314 
 230   0.0000       2.667971        72.5992 
 231   0.0000       2.686183        73.0948 
 232   0.0000       2.694991        73.3344 
 233   0.0000       2.698081        73.4185 
 234   0.0000       2.720808        74.0370 
 235   0.0000       2.741292        74.5944 
 236   0.0000       2.746462        74.7350 
 237   0.0000       2.761375        75.1408 
 238   0.0000       2.767754        75.3144 
 239   0.0000       2.785909        75.8084 
 240   0.0000       2.791603        75.9634 
 241   0.0000       2.819051        76.7103 
 242   0.0000       2.836172        77.1762 
 243   0.0000       2.861069        77.8537 
 244   0.0000       2.876792        78.2815 
 245   0.0000       2.884494        78.4911 
 246   0.0000       2.892785        78.7167 
 247   0.0000       2.900415        78.9243 
 248   0.0000       2.919067        79.4319 
 249   0.0000       2.922094        79.5142 
 250   0.0000       2.947671        80.2102 
 251   0.0000       2.954655        80.4003 
 252   0.0000       2.980104        81.0927 
 253   0.0000       2.987170        81.2850 
 254   0.0000       3.003736        81.7358 
 255   0.0000       3.018537        82.1386 
 256   0.0000       3.040872        82.7463 
 257   0.0000       3.056105        83.1609 
 258   0.0000       3.062444        83.3333 
 259   0.0000       3.087495        84.0150 
 260   0.0000       3.098043        84.3020 
 261   0.0000       3.102289        84.4176 
 262   0.0000       3.126292        85.0707 
 263   0.0000       3.138635        85.4066 
 264   0.0000       3.159934        85.9862 
 265   0.0000       3.170804        86.2820 
 266   0.0000       3.185349        86.6778 
 267   0.0000       3.191139        86.8353 
 268   0.0000       3.210435        87.3604 
 269   0.0000       3.222885        87.6992 
 270   0.0000       3.238259        88.1175 
 271   0.0000       3.245668        88.3191 
 272   0.0000       3.261854        88.7596 
 273   0.0000       3.270530        88.9956 
 274   0.0000       3.281481        89.2936 
 275   0.0000       3.306888        89.9850 
 276   0.0000       3.315040        90.2068 
 277   0.0000       3.341918        90.9382 
 278   0.0000       3.350048        91.1594 
 279   0.0000       3.362008        91.4849 
 280   0.0000       3.377733        91.9128 
 281   0.0000       3.384966        92.1096 
 282   0.0000       3.394871        92.3791 
 283   0.0000       3.405987        92.6816 
 284   0.0000       3.419901        93.0602 
 285   0.0000       3.444046        93.7172 
 286   0.0000       3.454356        93.9978 
 287   0.0000       3.460396        94.1622 
 288   0.0000       3.470560        94.4387 
 289   0.0000       3.492492        95.0355 
 290   0.0000       3.506972        95.4296 
 291   0.0000       3.514675        95.6392 
 292   0.0000       3.527997        96.0017 
 293   0.0000       3.542027        96.3835 
 294   0.0000       3.569006        97.1176 
 295   0.0000       3.578484        97.3755 
 296   0.0000       3.588271        97.6418 
 297   0.0000       3.600119        97.9642 
 298   0.0000       3.601899        98.0127 
 299   0.0000       3.619357        98.4877 
 300   0.0000       3.645442        99.1975 
 301   0.0000       3.695261       100.5532 
 302   0.0000       3.716025       101.1182 
 303   0.0000       3.745411       101.9178 
 304   0.0000       3.765111       102.4539 
 305   0.0000       3.807767       103.6146 
 306   0.0000       3.819327       103.9292 
 307   0.0000       3.831894       104.2711 
 308   0.0000       3.854753       104.8932 
 309   0.0000       3.891276       105.8870 
 310   0.0000       3.919650       106.6591 
 311   0.0000       3.938858       107.1818 
 312   0.0000       3.949235       107.4641 
 313   0.0000       3.978550       108.2619 
 314   0.0000       4.001296       108.8808 
 315   0.0000       4.027956       109.6062 
 316   0.0000       4.038431       109.8913 
 317   0.0000       4.056042       110.3705 
 318   0.0000       4.081860       111.0730 
 319   0.0000       4.133972       112.4911 
 320   0.0000       4.155202       113.0688 
 321   0.0000       4.163848       113.3041 
 322   0.0000       4.191048       114.0442 
 323   0.0000       4.213088       114.6439 
 324   0.0000       4.250111       115.6514 
 325   0.0000       4.252975       115.7293 
 326   0.0000       4.279450       116.4498 
 327   0.0000       4.284617       116.5903 
 328   0.0000       4.293959       116.8446 
 329   0.0000       4.317747       117.4919 
 330   0.0000       4.339878       118.0941 
 331   0.0000       4.366865       118.8284 
 332   0.0000       4.383101       119.2703 
 333   0.0000       4.408331       119.9568 
 334   0.0000       4.449912       121.0883 
 335   0.0000       4.472281       121.6970 
 336   0.0000       4.507607       122.6582 
 337   0.0000       4.538371       123.4953 
 338   0.0000       4.580368       124.6382 
 339   0.0000       4.620023       125.7172 
 340   0.0000       4.658834       126.7733 
 341   0.0000       4.680205       127.3549 
 342   0.0000       4.700661       127.9115 
 343   0.0000       4.730633       128.7271 
 344   0.0000       4.773853       129.9031 
 345   0.0000       4.813909       130.9931 
 346   0.0000       4.851009       132.0027 
 347   0.0000       4.902801       133.4120 
 348   0.0000       4.915554       133.7590 
 349   0.0000       4.924189       133.9940 
 350   0.0000       4.940578       134.4400 
 351   0.0000       4.980048       135.5140 
 352   0.0000       5.008042       136.2758 
 353   0.0000       5.070049       137.9630 
 354   0.0000       5.077701       138.1713 
 355   0.0000       5.121391       139.3601 
 356   0.0000       5.143327       139.9570 
 357   0.0000       5.177571       140.8889 
 358   0.0000       5.244071       142.6984 
 359   0.0000       5.294644       144.0746 
 360   0.0000       5.315349       144.6380 
 361   0.0000       5.334432       145.1573 
 362   0.0000       5.349550       145.5687 
 363   0.0000       5.360838       145.8758 
 364   0.0000       5.428247       147.7101 
 365   0.0000       5.435024       147.8945 
 366   0.0000       5.507915       149.8780 
 367   0.0000       5.557123       151.2170 
 368   0.0000       5.630409       153.2112 
 369   0.0000       5.652301       153.8069 
 370   0.0000       5.663034       154.0990 
 371   0.0000       5.758085       156.6855 
 372   0.0000       5.773636       157.1086 
 373   0.0000       5.852281       159.2487 
 374   0.0000       5.953476       162.0023 
 375   0.0000       6.128118       166.7546 
 376   0.0000       6.138846       167.0465 
 377   0.0000       6.338236       172.4722 
 378   0.0000       6.444069       175.3520 
 379   0.0000       6.447493       175.4452 
 380   0.0000       6.479654       176.3203 
 381   0.0000       6.705445       182.4644 
 382   0.0000       6.727648       183.0686 
 383   0.0000       6.780833       184.5159 
 384   0.0000       6.857929       186.6137 
 385   0.0000       6.901762       187.8065 
 386   0.0000       7.056399       192.0144 
 387   0.0000       7.110078       193.4751 
 388   0.0000       7.136827       194.2029 
 389   0.0000       7.324173       199.3009 
 390   0.0000      22.154582       602.8568 
 391   0.0000      22.285771       606.4267 
 392   0.0000      22.416554       609.9854 
 393   0.0000      22.604127       615.0896 
 394   0.0000      22.667468       616.8132 
 395   0.0000      22.847298       621.7066 
 396   0.0000      22.926055       623.8497 
 397   0.0000      23.422801       637.3668 
 398   0.0000      31.742181       863.7486 
 399   0.0000      43.645668      1187.6590 
 400   0.0000      43.856104      1193.3853 

                    ********************************
                    * MULLIKEN POPULATION ANALYSIS *
                    ********************************

-----------------------
MULLIKEN ATOMIC CHARGES
-----------------------
   0 O :   -0.417484
   1 O :   -0.535948
   2 N :   -0.475152
   3 C :   -0.224649
   4 C :    0.240487
   5 C :   -0.065784
   6 C :   -0.356578
   7 C :   -0.246563
   8 C :    0.155271
   9 C :   -0.210002
  10 C :    0.168695
  11 H :    0.075724
  12 H :    0.045395
  13 H :    0.049693
  14 H :    0.084371
  15 H :    0.024774
  16 H :    0.014435
  17 H :    0.007038
  18 H :    0.223197
  19 H :    0.176471
  20 H :    0.266611
Sum of atomic charges:   -1.0000000

--------------------------------
MULLIKEN REDUCED ORBITAL CHARGES
--------------------------------
  0 O s       :     3.753924  s :     3.753924
      pz      :     1.776806  p :     4.630107
      px      :     1.332330
      py      :     1.520971
      dz2     :     0.004109  d :     0.031978
      dxz     :     0.002711
      dyz     :     0.005795
      dx2y2   :     0.007371
      dxy     :     0.011991
      f0      :     0.000262  f :     0.001476
      f+1     :     0.000250
      f-1     :     0.000218
      f+2     :     0.000055
      f-2     :     0.000208
      f+3     :     0.000107
      f-3     :     0.000375
  1 O s       :     3.786197  s :     3.786197
      pz      :     1.581218  p :     4.721083
      px      :     1.371105
      py      :     1.768759
      dz2     :     0.003350  d :     0.027205
      dxz     :     0.008214
      dyz     :     0.000745
      dx2y2   :     0.008438
      dxy     :     0.006458
      f0      :     0.000133  f :     0.001463
      f+1     :     0.000269
      f-1     :     0.000018
      f+2     :     0.000287
      f-2     :     0.000081
      f+3     :     0.000337
      f-3     :     0.000338
  2 N s       :     3.508491  s :     3.508491
      pz      :     1.386039  p :     3.923577
      px      :     1.415025
      py      :     1.122513
      dz2     :     0.010588  d :     0.041022
      dxz     :     0.007624
      dyz     :     0.007317
      dx2y2   :     0.012225
      dxy     :     0.003268
      f0      :     0.000425  f :     0.002062
      f+1     :     0.000202
      f-1     :     0.000302
      f+2     :     0.000578
      f-2     :     0.000277
      f+3     :     0.000120
      f-3     :     0.000159
  3 C s       :     3.160949  s :     3.160949
      pz      :     0.988152  p :     2.964358
      px      :     0.952830
      py      :     1.023376
      dz2     :     0.015531  d :     0.094009
      dxz     :     0.023737
      dyz     :     0.015589
      dx2y2   :     0.018702
      dxy     :     0.020450
      f0      :     0.000629  f :     0.005333
      f+1     :     0.000923
      f-1     :     0.000588
      f+2     :     0.001266
      f-2     :     0.000498
      f+3     :     0.000691
      f-3     :     0.000737
  4 C s       :     3.125349  s :     3.125349
      pz      :     0.972837  p :     2.493757
      px      :     0.761642
      py      :     0.759278
      dz2     :     0.009989  d :     0.130902
      dxz     :     0.019838
      dyz     :     0.029595
      dx2y2   :     0.037383
      dxy     :     0.034097
      f0      :     0.001316  f :     0.009506
      f+1     :     0.000974
      f-1     :     0.000639
      f+2     :     0.000914
      f-2     :     0.001404
      f+3     :     0.001352
      f-3     :     0.002908
  5 C s       :     3.133860  s :     3.133860
      pz      :     0.873614  p :     2.814756
      px      :     0.995851
      py      :     0.945291
      dz2     :     0.034969  d :     0.109773
      dxz     :     0.025334
      dyz     :     0.019026
      dx2y2   :     0.019743
      dxy     :     0.010702
      f0      :     0.001429  f :     0.007394
      f+1     :     0.000797
      f-1     :     0.001413
      f+2     :     0.001570
      f-2     :     0.001402
      f+3     :     0.000546
      f-3     :     0.000237
  6 C s       :     3.333578  s :     3.333578
      pz      :     1.096643  p :     2.936528
      px      :     0.985200
      py      :     0.854685
      dz2     :     0.007655  d :     0.079399
      dxz     :     0.020317
      dyz     :     0.007617
      dx2y2   :     0.021750
      dxy     :     0.022059
      f0      :     0.001071  f :     0.007073
      f+1     :     0.001004
      f-1     :     0.000676
      f+2     :     0.000623
      f-2     :     0.000912
      f+3     :     0.000942
      f-3     :     0.001846
  7 C s       :     3.248820  s :     3.248820
      pz      :     1.075180  p :     2.899148
      px      :     0.933903
      py      :     0.890065
      dz2     :     0.007399  d :     0.091783
      dxz     :     0.018556
      dyz     :     0.013783
      dx2y2   :     0.016403
      dxy     :     0.035641
      f0      :     0.001060  f :     0.006813
      f+1     :     0.000961
      f-1     :     0.000532
      f+2     :     0.001009
      f-2     :     0.000483
      f+3     :     0.001003
      f-3     :     0.001765
  8 C s       :     3.077437  s :     3.077437
      pz      :     0.987258  p :     2.605050
      px      :     0.813237
      py      :     0.804555
      dz2     :     0.011522  d :     0.147354
      dxz     :     0.031022
      dyz     :     0.028104
      dx2y2   :     0.043575
      dxy     :     0.033132
      f0      :     0.001759  f :     0.014888
      f+1     :     0.001388
      f-1     :     0.001111
      f+2     :     0.001132
      f-2     :     0.002404
      f+3     :     0.002656
      f-3     :     0.004438
  9 C s       :     3.256526  s :     3.256526
      pz      :     1.081366  p :     2.871014
      px      :     0.900097
      py      :     0.889550
      dz2     :     0.007571  d :     0.075580
      dxz     :     0.017697
      dyz     :     0.007923
      dx2y2   :     0.019471
      dxy     :     0.022918
      f0      :     0.001043  f :     0.006882
      f+1     :     0.001055
      f-1     :     0.000591
      f+2     :     0.000643
      f-2     :     0.000814
      f+3     :     0.001087
      f-3     :     0.001650
 10 C s       :     3.010498  s :     3.010498
      pz      :     0.907769  p :     2.613817
      px      :     0.860707
      py      :     0.845341
      dz2     :     0.018838  d :     0.190937
      dxz     :     0.049292
      dyz     :     0.019833
      dx2y2   :     0.033728
      dxy     :     0.069245
      f0      :     0.001700  f :     0.016054
      f+1     :     0.002004
      f-1     :     0.000622
      f+2     :     0.002161
      f-2     :     0.001579
      f+3     :     0.002768
      f-3     :     0.005220
 11 H s       :     0.903300  s :     0.903300
      pz      :     0.005643  p :     0.020976
      px      :     0.005644
      py      :     0.009689
 12 H s       :     0.933309  s :     0.933309
      pz      :     0.009356  p :     0.021296
      px      :     0.004974
      py      :     0.006967
 13 H s       :     0.929600  s :     0.929600
      pz      :     0.004970  p :     0.020706
      px      :     0.011194
      py      :     0.004541
 14 H s       :     0.894994  s :     0.894994
      pz      :     0.004578  p :     0.020635
      px      :     0.005282
      py      :     0.010776
 15 H s       :     0.953139  s :     0.953139
      pz      :     0.005891  p :     0.022087
      px      :     0.004858
      py      :     0.011338
 16 H s       :     0.963514  s :     0.963514
      pz      :     0.006071  p :     0.022052
      px      :     0.006756
      py      :     0.009225
 17 H s       :     0.970931  s :     0.970931
      pz      :     0.005991  p :     0.022031
      px      :     0.005100
      py      :     0.010940
 18 H s       :     0.741280  s :     0.741280
      pz      :     0.011154  p :     0.035523
      px      :     0.017384
      py      :     0.006985
 19 H s       :     0.787240  s :     0.787240
      pz      :     0.009129  p :     0.036290
      px      :     0.010361
      py      :     0.016800
 20 H s       :     0.684620  s :     0.684620
      pz      :     0.014774  p :     0.048769
      px      :     0.017484
      py      :     0.016512


                     *******************************
                     * LOEWDIN POPULATION ANALYSIS *
                     *******************************

----------------------
LOEWDIN ATOMIC CHARGES
----------------------
   0 O :    0.034190
   1 O :   -0.102637
   2 N :   -0.179331
   3 C :   -0.265554
   4 C :   -0.221621
   5 C :   -0.356706
   6 C :   -0.157863
   7 C :   -0.197484
   8 C :   -0.282310
   9 C :   -0.179213
  10 C :   -0.437092
  11 H :    0.130253
  12 H :    0.131034
  13 H :    0.111554
  14 H :    0.124615
  15 H :    0.131252
  16 H :    0.121255
  17 H :    0.123324
  18 H :    0.156780
  19 H :    0.138000
  20 H :    0.177553

-------------------------------
LOEWDIN REDUCED ORBITAL CHARGES
-------------------------------
  0 O s       :     3.357166  s :     3.357166
      pz      :     1.678034  p :     4.532945
      px      :     1.323077
      py      :     1.531834
      dz2     :     0.007632  d :     0.070698
      dxz     :     0.007992
      dyz     :     0.010457
      dx2y2   :     0.020480
[...]
 180   0.0000       2.792466        75.9869 
 181   0.0000       2.845199        77.4218 
 182   0.0000       2.850465        77.5651 
 183   0.0000       2.859235        77.8037 
 184   0.0000       2.880082        78.3710 
 185   0.0000       2.917310        79.3841 
 186   0.0000       2.953581        80.3710 
 187   0.0000       2.997322        81.5613 
 188   0.0000       3.011334        81.9426 
 189   0.0000       3.014917        82.0401 
 190   0.0000       3.034095        82.5619 
 191   0.0000       3.054693        83.1224 
 192   0.0000       3.086987        84.0012 
 193   0.0000       3.137856        85.3854 
 194   0.0000       3.211220        87.3817 
 195   0.0000       3.228889        87.8625 
 196   0.0000       3.248512        88.3965 
 197   0.0000       3.308611        90.0319 
 198   0.0000       3.389389        92.2300 
 199   0.0000       3.410448        92.8030 
 200   0.0000       3.536994        96.2465 
 201   0.0000       3.596223        97.8582 
 202   0.0000       3.764134       102.4273 
 203   0.0000       3.891995       105.9066 

                    ********************************
                    * MULLIKEN POPULATION ANALYSIS *
                    ********************************

-----------------------
MULLIKEN ATOMIC CHARGES
-----------------------
   0 O :   -0.223346
   1 O :   -0.392274
   2 N :   -0.217757
   3 C :    0.046548
   4 C :   -0.058536
   5 C :    0.083376
   6 C :   -0.069710
   7 C :   -0.011445
   8 C :   -0.011028
   9 C :   -0.140080
  10 C :    0.141469
  11 H :   -0.038410
  12 H :   -0.040520
  13 H :   -0.001552
  14 H :   -0.004089
  15 H :   -0.108202
  16 H :   -0.105426
  17 H :   -0.101892
  18 H :    0.070331
  19 H :    0.070965
  20 H :    0.111578
Sum of atomic charges:   -1.0000000

--------------------------------
MULLIKEN REDUCED ORBITAL CHARGES
--------------------------------
  0 O s       :     3.678244  s :     3.678244
      pz      :     1.794524  p :     4.531749
      px      :     1.246681
      py      :     1.490544
      dz2     :     0.001782  d :     0.013353
      dxz     :     0.000807
      dyz     :     0.002452
      dx2y2   :     0.002953
      dxy     :     0.005359
  1 O s       :     3.724770  s :     3.724770
      pz      :     1.576020  p :     4.653967
      px      :     1.340477
      py      :     1.737470
      dz2     :     0.001710  d :     0.013537
      dxz     :     0.003956
      dyz     :     0.000176
      dx2y2   :     0.004738
      dxy     :     0.002958
  2 N s       :     3.414956  s :     3.414956
      pz      :     1.482718  p :     3.784091
      px      :     1.261379
      py      :     1.039994
      dz2     :     0.001951  d :     0.018710
      dxz     :     0.002402
      dyz     :     0.007494
      dx2y2   :     0.004515
      dxy     :     0.002349
  3 C s       :     2.937206  s :     2.937206
      pz      :     0.991071  p :     2.982105
      px      :     1.042225
      py      :     0.948809
      dz2     :     0.003975  d :     0.034140
      dxz     :     0.009557
      dyz     :     0.008879
      dx2y2   :     0.006935
      dxy     :     0.004794
  4 C s       :     3.051020  s :     3.051020
      pz      :     1.078549  p :     2.966696
      px      :     0.944980
      py      :     0.943166
      dz2     :     0.002887  d :     0.040821
      dxz     :     0.005420
      dyz     :     0.008250
      dx2y2   :     0.012325
      dxy     :     0.011939
  5 C s       :     2.988870  s :     2.988870
      pz      :     1.009199  p :     2.879694
      px      :     0.829639
      py      :     1.040856
      dz2     :     0.006336  d :     0.048059
      dxz     :     0.012960
      dyz     :     0.009824
      dx2y2   :     0.012585
      dxy     :     0.006354
  6 C s       :     3.311466  s :     3.311466
      pz      :     1.108433  p :     2.726591
      px      :     0.945067
      py      :     0.673091
      dz2     :     0.002751  d :     0.031653
      dxz     :     0.006957
      dyz     :     0.003150
      dx2y2   :     0.010595
      dxy     :     0.008199
  7 C s       :     3.200577  s :     3.200577
      pz      :     1.080061  p :     2.777361
      px      :     0.880274
      py      :     0.817026
      dz2     :     0.002845  d :     0.033507
      dxz     :     0.006139
      dyz     :     0.004250
      dx2y2   :     0.008692
      dxy     :     0.011580
  8 C s       :     3.061076  s :     3.061076
      pz      :     1.050788  p :     2.881334
      px      :     0.885807
      py      :     0.944738
      dz2     :     0.005667  d :     0.068618
      dxz     :     0.010782
      dyz     :     0.011314
      dx2y2   :     0.018970
      dxy     :     0.021885
  9 C s       :     3.280513  s :     3.280513
      pz      :     1.106799  p :     2.829625
      px      :     0.870364
      py      :     0.852462
      dz2     :     0.002632  d :     0.029942
      dxz     :     0.005698
      dyz     :     0.002561
      dx2y2   :     0.009106
      dxy     :     0.009946
 10 C s       :     2.925257  s :     2.925257
      pz      :     0.968375  p :     2.844244
      px      :     0.902922
      py      :     0.972947
      dz2     :     0.006174  d :     0.089030
      dxz     :     0.022228
      dyz     :     0.005887
      dx2y2   :     0.019945
      dxy     :     0.034796
 11 H s       :     1.015973  s :     1.015973
      pz      :     0.007255  p :     0.022437
      px      :     0.005212
      py      :     0.009970
 12 H s       :     1.018116  s :     1.018116
      pz      :     0.007262  p :     0.022404
      px      :     0.004681
      py      :     0.010461
 13 H s       :     0.980400  s :     0.980400
      pz      :     0.007116  p :     0.021152
      px      :     0.004046
      py      :     0.009990
 14 H s       :     0.982966  s :     0.982966
      pz      :     0.007065  p :     0.021123
      px      :     0.003228
      py      :     0.010830
 15 H s       :     1.084895  s :     1.084895
      pz      :     0.006305  p :     0.023307
      px      :     0.005002
      py      :     0.011999
 16 H s       :     1.082179  s :     1.082179
      pz      :     0.006340  p :     0.023247
      px      :     0.006860
      py      :     0.010047
 17 H s       :     1.079029  s :     1.079029
      pz      :     0.006075  p :     0.022863
      px      :     0.005447
      py      :     0.011341
 18 H s       :     0.883807  s :     0.883807
      pz      :     0.016257  p :     0.045862
      px      :     0.011909
      py      :     0.017697
 19 H s       :     0.883166  s :     0.883166
      pz      :     0.015930  p :     0.045869
      px      :     0.010617
      py      :     0.019323
 20 H s       :     0.816989  s :     0.816989
      pz      :     0.017833  p :     0.071433
      px      :     0.031576
      py      :     0.022024


                     *******************************
                     * LOEWDIN POPULATION ANALYSIS *
                     *******************************

----------------------
LOEWDIN ATOMIC CHARGES
----------------------
   0 O :   -0.100538
   1 O :   -0.364208
   2 N :   -0.127720
   3 C :   -0.057514
   4 C :   -0.104428
   5 C :    0.001384
   6 C :   -0.107593
   7 C :   -0.091296
   8 C :   -0.020019
   9 C :   -0.120124
  10 C :   -0.067015
  11 H :    0.007481
  12 H :    0.006858
  13 H :    0.017260
  14 H :    0.015838
  15 H :   -0.000027
  16 H :   -0.006379
  17 H :   -0.004384
  18 H :    0.039363
  19 H :    0.039898
  20 H :    0.043162

-------------------------------
LOEWDIN REDUCED ORBITAL CHARGES
-------------------------------
  0 O s       :     3.449712  s :     3.449712
      pz      :     1.768512  p :     4.624797
      px      :     1.310769
      py      :     1.545516
      dz2     :     0.003589  d :     0.026028
      dxz     :     0.001765
      dyz     :     0.003124
      dx2y2   :     0.005821
      dxy     :     0.011730
  1 O s       :     3.573663  s :     3.573663
      pz      :     1.587379  p :     4.766194
      px      :     1.435462
      py      :     1.743353
      dz2     :     0.003327  d :     0.024351
      dxz     :     0.005993
      dyz     :     0.000244
      dx2y2   :     0.009724
      dxy     :     0.005062
  2 N s       :     3.143868  s :     3.143868
      pz      :     1.514049  p :     3.940982
      px      :     1.291428
      py      :     1.135505
      dz2     :     0.002736  d :     0.042871
      dxz     :     0.004124
      dyz     :     0.016798
      dx2y2   :     0.013328
      dxy     :     0.005885
  3 C s       :     2.845101  s :     2.845101
      pz      :     1.026948  p :     3.120492
      px      :     1.047554
      py      :     1.045990
      dz2     :     0.010997  d :     0.091921
      dxz     :     0.025429
      dyz     :     0.023439
      dx2y2   :     0.020903
      dxy     :     0.011153
  4 C s       :     2.841552  s :     2.841552
      pz      :     1.068583  p :     3.154573
      px      :     1.007383
      py      :     1.078607
      dz2     :     0.007490  d :     0.108303
      dxz     :     0.010829
      dyz     :     0.018530
      dx2y2   :     0.037067
      dxy     :     0.034388
  5 C s       :     2.848982  s :     2.848982
      pz      :     1.045033  p :     3.036467
      px      :     0.914655
      py      :     1.076779
      dz2     :     0.014856  d :     0.113168
      dxz     :     0.031601
      dyz     :     0.023817
      dx2y2   :     0.031288
      dxy     :     0.011605
  6 C s       :     2.857359  s :     2.857359
      pz      :     1.085346  p :     3.159944
      px      :     1.050272
      py      :     1.024326
      dz2     :     0.006828  d :     0.090290
      dxz     :     0.015898
      dyz     :     0.006727
      dx2y2   :     0.032855
      dxy     :     0.027982
  7 C s       :     2.859039  s :     2.859039
      pz      :     1.060933  p :     3.139808
      px      :     1.051003
      py      :     1.027871
      dz2     :     0.006968  d :     0.092450
      dxz     :     0.014002
      dyz     :     0.009392
      dx2y2   :     0.027548
      dxy     :     0.034540
  8 C s       :     2.858868  s :     2.858868
      pz      :     1.028739  p :     2.998703
      px      :     1.009824
      py      :     0.960139
      dz2     :     0.012526  d :     0.162448
      dxz     :     0.022542
      dyz     :     0.022991
      dx2y2   :     0.048757
      dxy     :     0.055632
  9 C s       :     2.873124  s :     2.873124
      pz      :     1.080973  p :     3.161250
      px      :     1.051348
      py      :     1.028929
      dz2     :     0.007110  d :     0.085751
      dxz     :     0.013294
      dyz     :     0.005343
      dx2y2   :     0.029819
      dxy     :     0.030183
 10 C s       :     2.833576  s :     2.833576
      pz      :     0.955562  p :     3.013808
      px      :     0.994279
      py      :     1.063967
      dz2     :     0.014717  d :     0.219631
      dxz     :     0.045445
      dyz     :     0.013114
      dx2y2   :     0.054919
      dxy     :     0.091435
 11 H s       :     0.926090  s :     0.926090
      pz      :     0.021466  p :     0.066428
      px      :     0.016751
      py      :     0.028211
 12 H s       :     0.926657  s :     0.926657
      pz      :     0.021530  p :     0.066485
      px      :     0.014732
      py      :     0.030223
 13 H s       :     0.918083  s :     0.918083
      pz      :     0.022582  p :     0.064657
      px      :     0.013104
      py      :     0.028971
 14 H s       :     0.919425  s :     0.919425
      pz      :     0.022511  p :     0.064737
      px      :     0.010679
      py      :     0.031547
 15 H s       :     0.928885  s :     0.928885
      pz      :     0.018914  p :     0.071141
      px      :     0.015978
      py      :     0.036249
 16 H s       :     0.936950  s :     0.936950
      pz      :     0.018148  p :     0.069429
      px      :     0.021091
      py      :     0.030191
 17 H s       :     0.934325  s :     0.934325
      pz      :     0.018969  p :     0.070059
      px      :     0.015977
      py      :     0.035113
 18 H s       :     0.838926  s :     0.838926
      pz      :     0.047798  p :     0.121711
      px      :     0.031458
      py      :     0.042455
 19 H s       :     0.838471  s :     0.838471
      pz      :     0.046438  p :     0.121631
      px      :     0.027846
      py      :     0.047346
 20 H s       :     0.767125  s :     0.767125
      pz      :     0.046912  p :     0.189713
      px      :     0.080774
      py      :     0.062026


                      *****************************
                      * MAYER POPULATION ANALYSIS *
                      *****************************

  NA   - Mulliken gross atomic population
  ZA   - Total nuclear charge
  QA   - Mulliken gross atomic charge
  VA   - Mayer's total valence
  BVA  - Mayer's bonded valence
  FA   - Mayer's free valence

  ATOM       NA         ZA         QA         VA         BVA        FA
  0 O      8.2233     8.0000    -0.2233     2.2349     2.2349    -0.0000
  1 O      8.3923     8.0000    -0.3923     2.1856     2.1856    -0.0000
  2 N      7.2178     7.0000    -0.2178     3.0844     3.0844    -0.0000
  3 C      5.9535     6.0000     0.0465     3.9693     3.9693     0.0000
  4 C      6.0585     6.0000    -0.0585     3.8842     3.8842     0.0000
  5 C      5.9166     6.0000     0.0834     4.0245     4.0245     0.0000
  6 C      6.0697     6.0000    -0.0697     3.7443     3.7443     0.0000
  7 C      6.0114     6.0000    -0.0114     3.7522     3.7522    -0.0000
  8 C      6.0110     6.0000    -0.0110     3.9322     3.9322    -0.0000
  9 C      6.1401     6.0000    -0.1401     3.7691     3.7691     0.0000
 10 C      5.8585     6.0000     0.1415     4.1128     4.1128     0.0000
 11 H      1.0384     1.0000    -0.0384     0.9914     0.9914     0.0000
 12 H      1.0405     1.0000    -0.0405     0.9924     0.9924     0.0000
 13 H      1.0016     1.0000    -0.0016     0.9930     0.9930     0.0000
 14 H      1.0041     1.0000    -0.0041     0.9960     0.9960     0.0000
 15 H      1.1082     1.0000    -0.1082     0.9881     0.9881     0.0000
 16 H      1.1054     1.0000    -0.1054     0.9681     0.9681     0.0000
 17 H      1.1019     1.0000    -0.1019     0.9908     0.9908    -0.0000
 18 H      0.9297     1.0000     0.0703     1.0070     1.0070     0.0000
 19 H      0.9290     1.0000     0.0710     1.0061     1.0061     0.0000
 20 H      0.8884     1.0000     0.1116     1.1294     1.1294     0.0000

  Mayer bond orders larger than 0.100000
B(  0-O ,  8-C ) :   1.2044 B(  0-O , 20-H ) :   0.9066 B(  1-O , 10-C ) :   1.7522 
B(  1-O , 20-H ) :   0.1999 B(  2-N ,  5-C ) :   1.0736 B(  2-N , 18-H ) :   0.9777 
B(  2-N , 19-H ) :   0.9780 B(  3-C ,  4-C ) :   1.0349 B(  3-C ,  5-C ) :   1.0799 
B(  3-C , 11-H ) :   0.9089 B(  3-C , 12-H ) :   0.9075 B(  4-C ,  6-C ) :   1.2801 
B(  4-C ,  7-C ) :   1.3740 B(  5-C , 13-H ) :   0.9361 B(  5-C , 14-H ) :   0.9355 
B(  6-C ,  8-C ) :   1.3790 B(  6-C , 15-H ) :   0.9746 B(  7-C ,  9-C ) :   1.3317 
B(  7-C , 16-H ) :   0.9652 B(  8-C , 10-C ) :   1.1143 B(  9-C , 10-C ) :   1.2342 
B(  9-C , 17-H ) :   0.9579 

-------
TIMINGS
-------

Total SCF time: 0 days 0 hours 0 min 47 sec 

Total time                  ....      47.281 sec
Sum of individual times     ....      45.901 sec  ( 97.1%)

Fock matrix formation       ....      43.527 sec  ( 92.1%)
  XC integration            ....       5.774 sec  ( 13.3% of F)
    Basis function eval.    ....       1.697 sec  ( 29.4% of XC)
    Density eval.           ....       1.468 sec  ( 25.4% of XC)
    XC-Functional eval.     ....       0.282 sec  (  4.9% of XC)
    XC-Potential eval.      ....       1.183 sec  ( 20.5% of XC)
Diagonalization             ....       0.226 sec  (  0.5%)
Density matrix formation    ....       0.042 sec  (  0.1%)
Population analysis         ....       0.151 sec  (  0.3%)
Initial guess               ....       0.019 sec  (  0.0%)
Orbital Transformation      ....       0.000 sec  (  0.0%)
Orbital Orthonormalization  ....       0.015 sec  (  0.0%)
DIIS solution               ....       0.154 sec  (  0.3%)
SOSCF solution              ....       0.846 sec  (  1.8%)
Grid generation             ....       0.937 sec  (  2.0%)

Maximum memory used throughout the entire SCF-calculation: 237.8 MB


-------------------------------------------------------------------------------
                          DFT DISPERSION CORRECTION                            
                                                                               
                              DFTD3 V3.1  Rev 1                                
                          USING Becke-Johnson damping                          
-------------------------------------------------------------------------------
The PBE functional is recognized
Active option DFTDOPT                   ...         4   

molecular C6(AA) [au] = 4454.733677 


            DFT-D V3
 parameters
 s6 scaling factor         :     1.0000 
 a1 scaling factor         :     0.4289 
 s8 scaling factor         :     0.7875 
 a2 scaling factor         :     4.4407 
 ad hoc parameters k1-k3   :    16.0000     1.3333    -4.0000 

 Edisp/kcal,au: -13.689984814149  -0.021816377154 
 E6   /kcal   :  -9.667795959 
 E8   /kcal   :  -4.022188855 
 % E8         :  29.380520938 

-------------------------   ----------------
Dispersion correction           -0.021816377
-------------------------   ----------------


-------------------------   --------------------
FINAL SINGLE POINT ENERGY      -515.130676750585
-------------------------   --------------------


                            ***************************************
                            *     ORCA property calculations      *
                            ***************************************

                                    ---------------------
                                    Active property flags
                                    ---------------------
   (+) Dipole Moment


------------------------------------------------------------------------------
                       ORCA ELECTRIC PROPERTIES CALCULATION
------------------------------------------------------------------------------

Dipole Moment Calculation                       ... on
Quadrupole Moment Calculation                   ... off
Polarizability Calculation                      ... off
GBWName                                         ... M0006.gbw
Electron density                                ... M0006.scfp
The origin for moment calculation is the CENTER OF MASS  = ( 0.183060, -0.009994 -0.008879)

-------------
DIPOLE MOMENT
-------------
                                X             Y             Z
Electronic contribution:     12.24355      -1.09772      -0.20198
Nuclear contribution   :    -14.82783       0.80952       0.71920
                        -----------------------------------------
Total Dipole Moment    :     -2.58428      -0.28820       0.51722
                        -----------------------------------------
Magnitude (a.u.)       :      2.65124
Magnitude (Debye)      :      6.73893



--------------------
Rotational spectrum 
--------------------
 
Rotational constants in cm-1:     0.090747     0.018385     0.016011 
Rotational constants in MHz :  2720.519809   551.155102   479.984032 

 Dipole components along the rotational axes: 
x,y,z [a.u.] :    -2.582530     0.291572     0.524042 
x,y,z [Debye]:    -6.564269     0.741118     1.332010 

 

Timings for individual modules:

Sum of individual times         ...       48.930 sec (=   0.816 min)
GTO integral calculation        ...        1.136 sec (=   0.019 min)   2.3 %
SCF iterations                  ...       47.795 sec (=   0.797 min)  97.7 %



                             ****ORCA TERMINATED NORMALLY****
TOTAL RUN TIME: 0 days 0 hours 6 minutes 31 seconds 604 msec
