
                                 *****************
                                 * O   R   C   A *
                                 *****************

                                            #,                                       
                                            ###                                      
                                            ####                                     
                                            #####                                    
                                            ######                                   
                                           ########,                                 
                                     ,,################,,,,,                         
                               ,,#################################,,                 
                          ,,##########################################,,             
                       ,#########################################, ''#####,          
                    ,#############################################,,   '####,        
                  ,##################################################,,,,####,       
                ,###########''''           ''''###############################       
              ,#####''   ,,,,##########,,,,          '''####'''          '####       
            ,##' ,,,,###########################,,,                        '##       
           ' ,,###''''                  '''############,,,                           
         ,,##''                                '''############,,,,        ,,,,,,###''
      ,#''                                            '''#######################'''  
     '                                                          ''''####''''         
             ,#######,   #######,   ,#######,      ##                                
            ,#'     '#,  ##    ##  ,#'     '#,    #''#        ######   ,####,        
            ##       ##  ##   ,#'  ##            #'  '#       #        #'  '#        
            ##       ##  #######   ##           ,######,      #####,   #    #        
            '#,     ,#'  ##    ##  '#,     ,#' ,#      #,         ##   #,  ,#        
             '#######'   ##     ##  '#######'  #'      '#     #####' # '####'        



                  #######################################################
                  #                        -***-                        #
                  #          Department of theory and spectroscopy      #
                  #    Directorship and core code : Frank Neese         #
                  #        Max Planck Institute fuer Kohlenforschung    #
                  #                Kaiser Wilhelm Platz 1               #
                  #                 D-45470 Muelheim/Ruhr               #
                  #                      Germany                        #
                  #                                                     #
                  #                  All rights reserved                #
                  #                        -***-                        #
                  #######################################################


                         Program Version 5.0.1 -  RELEASE  -


 With contributions from (in alphabetic order):
   Daniel Aravena         : Magnetic Suceptibility
   Michael Atanasov       : Ab Initio Ligand Field Theory (pilot matlab implementation)
   Alexander A. Auer      : GIAO ZORA, VPT2 properties, NMR spectrum
   Ute Becker             : Parallelization
   Giovanni Bistoni       : ED, misc. LED, open-shell LED, HFLD
   Martin Brehm           : Molecular dynamics
   Dmytro Bykov           : SCF Hessian
   Vijay G. Chilkuri      : MRCI spin determinant printing, contributions to CSF-ICE
   Dipayan Datta          : RHF DLPNO-CCSD density
   Achintya Kumar Dutta   : EOM-CC, STEOM-CC
   Dmitry Ganyushin       : Spin-Orbit,Spin-Spin,Magnetic field MRCI
   Miquel Garcia          : C-PCM and meta-GGA Hessian, CC/C-PCM, Gaussian charge scheme
   Yang Guo               : DLPNO-NEVPT2, F12-NEVPT2, CIM, IAO-localization
   Andreas Hansen         : Spin unrestricted coupled pair/coupled cluster methods
   Benjamin Helmich-Paris : MC-RPA, TRAH-SCF, COSX integrals
   Lee Huntington         : MR-EOM, pCC
   Robert Izsak           : Overlap fitted RIJCOSX, COSX-SCS-MP3, EOM
   Marcus Kettner         : VPT2
   Christian Kollmar      : KDIIS, OOCD, Brueckner-CCSD(T), CCSD density, CASPT2, CASPT2-K
   Simone Kossmann        : Meta GGA functionals, TD-DFT gradient, OOMP2, MP2 Hessian
   Martin Krupicka        : Initial AUTO-CI
   Lucas Lang             : DCDCAS
   Marvin Lechner         : AUTO-CI (C++ implementation), FIC-MRCC
   Dagmar Lenk            : GEPOL surface, SMD
   Dimitrios Liakos       : Extrapolation schemes; Compound Job, initial MDCI parallelization
   Dimitrios Manganas     : Further ROCIS development; embedding schemes
   Dimitrios Pantazis     : SARC Basis sets
   Anastasios Papadopoulos: AUTO-CI, single reference methods and gradients
   Taras Petrenko         : DFT Hessian,TD-DFT gradient, ASA, ECA, R-Raman, ABS, FL, XAS/XES, NRVS
   Peter Pinski           : DLPNO-MP2, DLPNO-MP2 Gradient
   Christoph Reimann      : Effective Core Potentials
   Marius Retegan         : Local ZFS, SOC
   Christoph Riplinger    : Optimizer, TS searches, QM/MM, DLPNO-CCSD(T), (RO)-DLPNO pert. Triples
   Tobias Risthaus        : Range-separated hybrids, TD-DFT gradient, RPA, STAB
   Michael Roemelt        : Original ROCIS implementation
   Masaaki Saitow         : Open-shell DLPNO-CCSD energy and density
   Barbara Sandhoefer     : DKH picture change effects
   Avijit Sen             : IP-ROCIS
   Kantharuban Sivalingam : CASSCF convergence, NEVPT2, FIC-MRCI
   Bernardo de Souza      : ESD, SOC TD-DFT
   Georgi Stoychev        : AutoAux, RI-MP2 NMR, DLPNO-MP2 response
   Willem Van den Heuvel  : Paramagnetic NMR
   Boris Wezisla          : Elementary symmetry handling
   Frank Wennmohs         : Technical directorship


 We gratefully acknowledge several colleagues who have allowed us to
 interface, adapt or use parts of their codes:
   Stefan Grimme, W. Hujo, H. Kruse, P. Pracht,  : VdW corrections, initial TS optimization,
                  C. Bannwarth, S. Ehlert          DFT functionals, gCP, sTDA/sTD-DF
   Ed Valeev, F. Pavosevic, A. Kumar             : LibInt (2-el integral package), F12 methods
   Garnet Chan, S. Sharma, J. Yang, R. Olivares  : DMRG
   Ulf Ekstrom                                   : XCFun DFT Library
   Mihaly Kallay                                 : mrcc  (arbitrary order and MRCC methods)
   Jiri Pittner, Ondrej Demel                    : Mk-CCSD
   Frank Weinhold                                : gennbo (NPA and NBO analysis)
   Christopher J. Cramer and Donald G. Truhlar   : smd solvation model
   Lars Goerigk                                  : TD-DFT with DH, B97 family of functionals
   V. Asgeirsson, H. Jonsson                     : NEB implementation
   FAccTs GmbH                                   : IRC, NEB, NEB-TS, DLPNO-Multilevel, CI-OPT
                                                   MM, QMMM, 2- and 3-layer-ONIOM, Crystal-QMMM,
                                                   LR-CPCM, SF, NACMEs, symmetry and pop. for TD-DFT,
                                                   nearIR, NL-DFT gradient (VV10), updates on ESD,
                                                   ML-optimized integration grids
   S Lehtola, MJT Oliveira, MAL Marques          : LibXC Library
   Liviu Ungur et al                             : ANISO software


 Your calculation uses the libint2 library for the computation of 2-el integrals
 For citations please refer to: http://libint.valeyev.net

 Your ORCA version has been built with support for libXC version: 5.1.0
 For citations please refer to: https://tddft.org/programs/libxc/

 This ORCA versions uses:
   CBLAS   interface :  Fast vector & matrix operations
   LAPACKE interface :  Fast linear algebra routines
   SCALAPACK package :  Parallel linear algebra routines
   Shared memory     :  Shared parallel matrices
   BLAS/LAPACK       :  OpenBLAS 0.3.15  USE64BITINT DYNAMIC_ARCH NO_AFFINITY Haswell SINGLE_THREADED
        Core in use  :  Haswell
   Copyright (c) 2011-2014, The OpenBLAS Project


Your calculation utilizes the atom-pairwise dispersion correction
with the Becke-Johnson damping scheme (D3BJ)
Cite in your paper:
S.Grimme, S.Ehrlich, L.Goerigk, J Comput Chem, (2011), 32, 1456–1465 
S.Grimme, J.Antony, S.Ehrlich and H.Krieg, J.Chem.Phys., 132, (2010), 154104 
   

================================================================================

----- Orbital basis set information -----
Your calculation utilizes the basis: def2-TZVP
   F. Weigend and R. Ahlrichs, Phys. Chem. Chem. Phys. 7, 3297 (2005).

----- AuxJ basis set information -----
Your calculation utilizes the auxiliary basis: def2/J
   F. Weigend, Phys. Chem. Chem. Phys. 8, 1057 (2006).

================================================================================
                                        WARNINGS
                       Please study these warnings very carefully!
================================================================================


WARNING: The environment variable RSH_COMMAND is not set!
  ===> : All Displacements for the Numerical Hessian calculation
         will be started on localhost

WARNING: Geometry Optimization
  ===> : Switching off AutoStart
         For restart on a previous wavefunction, please use MOREAD

INFO   : the flag for use of the SHARK integral package has been found!

================================================================================
                                       INPUT FILE
================================================================================
NAME = ex.inp
|  1> ! PBE D3 def2-TZVP opt numfreq
|  2> 
|  3> %base "M0005"
|  4> %pal nprocs=8 end
|  5> %geom maxiter=75 end
|  6> * xyz -1 1
|  7>  O   2.37680991932485     -1.81267800046164     -0.06659305144654
|  8>   O   3.24103027554500      0.51521893842743     -0.52438181688768
|  9>   N   -3.03417711128266      0.36649194273390     -1.35033687923966
| 10>   C   -2.18680988754197     -0.14343659610359      0.99472152370024
| 11>   C   -0.73819700620455      0.07498578985383      0.64722118723661
| 12>   C   -3.04283357946935     -0.57094142868374     -0.21831352905351
| 13>   C   0.13670616099213     -1.03259552842701      0.49293886832497
| 14>   C   -0.23297235727070      1.35439392328312      0.38961018129980
| 15>   C   1.44625241520304     -0.82996025672124      0.10043757131359
| 16>   C   1.09819600607652      1.57033752656178     -0.01191445968649
| 17>   C   1.99490760639890      0.48711778795528     -0.17402756197149
| 18>   H   -2.61298248178174      0.78999960989061      1.40777294595278
| 19>   H   -2.29237746601319     -0.91490797152685      1.78206598588711
| 20>   H   -4.09186430607948     -0.72840710383446      0.09264893248853
| 21>   H   -2.67037712504959     -1.54059073885673     -0.58850134761575
| 22>   H   -0.21948312146617     -2.04990445071659      0.68982333424409
| 23>   H   -0.89903484781528      2.21625905417146      0.51621157229693
| 24>   H   1.46553525227062      2.58438971663359     -0.19428778104344
| 25>   H   -2.04613307739439      0.54820058977432     -1.56933536391617
| 26>   H   -3.38013633755354      1.27178421520879     -1.01353461736961
| 27>   H   3.15018006911159     -1.20012501916227     -0.33982069451431
| 28> *
| 29> 
| 30>                          ****END OF INPUT****
================================================================================

                       *****************************
                       * Geometry Optimization Run *
                       *****************************

Geometry optimization settings:
Update method            Update   .... BFGS
Choice of coordinates    CoordSys .... Z-matrix Internals
Initial Hessian          InHess   .... Almoef's Model

Convergence Tolerances:
Energy Change            TolE     ....  5.0000e-06 Eh
Max. Gradient            TolMAXG  ....  3.0000e-04 Eh/bohr
RMS Gradient             TolRMSG  ....  1.0000e-04 Eh/bohr
Max. Displacement        TolMAXD  ....  4.0000e-03 bohr
RMS Displacement         TolRMSD  ....  2.0000e-03 bohr
Strict Convergence                ....  False
------------------------------------------------------------------------------
                        ORCA OPTIMIZATION COORDINATE SETUP
------------------------------------------------------------------------------

The optimization will be done in new redundant internal coordinates
Making redundant internal coordinates   ...  (new redundants) done
Evaluating the initial hessian          ...  (Almloef) done
Evaluating the coordinates              ...  done
Calculating the B-matrix                .... done
Calculating the G-matrix                .... done
Diagonalizing the G-matrix              .... done
Small eigenvalue found = 1.860e-02
The first mode is                       ....   45
The number of degrees of freedom        ....   57

    -----------------------------------------------------------------
                    Redundant Internal Coordinates


    -----------------------------------------------------------------
         Definition                    Initial Value    Approx d2E/dq
    -----------------------------------------------------------------
      1. B(C   4,C   3)                  1.5056         0.408551   
      2. B(C   5,N   2)                  1.4698         0.417396   
      3. B(C   5,C   3)                  1.5450         0.353560   
      4. B(C   6,C   4)                  1.4199         0.559890   
      5. B(C   7,C   4)                  1.3995         0.603446   
      6. B(C   8,C   6)                  1.3820         0.643341   
      7. B(C   8,O   0)                  1.3637         0.616450   
      8. B(C   9,C   7)                  1.4071         0.586806   
      9. B(C  10,C   9)                  1.4155         0.568853   
     10. B(C  10,C   8)                  1.4529         0.495809   
     11. B(C  10,O   1)                  1.2947         0.794057   
     12. B(H  11,C   3)                  1.1061         0.339374   
     13. B(H  12,C   3)                  1.1073         0.337864   
     14. B(H  13,C   5)                  1.1054         0.340265   
     15. B(H  14,C   5)                  1.1027         0.343665   
     16. B(H  15,C   6)                  1.0957         0.352642   
     17. B(H  16,C   7)                  1.0966         0.351505   
     18. B(H  17,C   9)                  1.0938         0.355047   
     19. B(H  18,N   2)                  1.0282         0.404713   
     20. B(H  19,N   2)                  1.0260         0.408006   
     21. B(H  20,O   0)                  1.0237         0.411459   
     22. A(C   8,O   0,H  20)           96.7192         0.355266   
     23. A(H  18,N   2,H  19)          103.7689         0.297249   
     24. A(C   5,N   2,H  19)          107.9354         0.332309   
     25. A(C   5,N   2,H  18)          106.4044         0.331863   
     26. A(C   4,C   3,H  11)          109.5393         0.325934   
     27. A(C   5,C   3,H  11)          108.2533         0.318307   
     28. A(H  11,C   3,H  12)          106.5991         0.285297   
     29. A(C   5,C   3,H  12)          108.2192         0.318076   
     30. A(C   4,C   3,C   5)          113.0797         0.365498   
     31. A(C   4,C   3,H  12)          110.9095         0.325695   
     32. A(C   3,C   4,C   6)          120.3160         0.395816   
     33. A(C   6,C   4,C   7)          118.0791         0.424134   
     34. A(C   3,C   4,C   7)          121.4967         0.401063   
     35. A(C   3,C   5,H  14)          108.6477         0.318960   
     36. A(H  13,C   5,H  14)          106.8406         0.286172   
     37. A(N   2,C   5,H  14)          107.4747         0.325799   
     38. A(C   3,C   5,H  13)          110.1421         0.318443   
     39. A(N   2,C   5,H  13)          108.2461         0.325266   
     40. A(N   2,C   5,C   3)          115.1482         0.364556   
     41. A(C   8,C   6,H  15)          119.6824         0.353868   
     42. A(C   4,C   6,H  15)          120.2930         0.345669   
     43. A(C   4,C   6,C   8)          120.0236         0.429025   
     44. A(C   9,C   7,H  16)          119.1409         0.348221   
     45. A(C   4,C   7,H  16)          118.5550         0.349867   
     46. A(C   4,C   7,C   9)          122.3012         0.427714   
     47. A(O   0,C   8,C   6)          125.1506         0.433653   
     48. A(C   6,C   8,C  10)          122.9815         0.419798   
     49. A(O   0,C   8,C  10)          111.8659         0.413921   
     50. A(C  10,C   9,H  17)          118.5277         0.346989   
     51. A(C   7,C   9,H  17)          120.5013         0.348810   
     52. A(C   7,C   9,C  10)          120.9670         0.423218   
     53. A(C   8,C  10,C   9)          115.6475         0.410712   
     54. A(O   1,C  10,C   9)          128.6141         0.443955   
     55. A(O   1,C  10,C   8)          115.7361         0.433083   
     56. D(C   6,C   4,C   3,C   5)    -78.5518         0.012366   
     57. D(C   6,C   4,C   3,H  11)    160.6177         0.012366   
     58. D(C   7,C   4,C   3,C   5)     97.5935         0.012366   
     59. D(C   7,C   4,C   3,H  12)   -140.6296         0.012366   
     60. D(C   7,C   4,C   3,H  11)    -23.2369         0.012366   
     61. D(C   6,C   4,C   3,H  12)     43.2251         0.012366   
     62. D(N   2,C   5,C   3,H  11)     63.6584         0.010055   
     63. D(C   3,C   5,N   2,H  18)     52.0425         0.014857   
     64. D(H  14,C   5,N   2,H  19)    179.9778         0.014857   
     65. D(H  14,C   5,N   2,H  18)    -69.1633         0.014857   
     66. D(H  14,C   5,C   3,H  11)   -175.7753         0.010055   
     67. D(N   2,C   5,C   3,C   4)    -57.8990         0.010055   
     68. D(H  13,C   5,C   3,H  12)     56.0997         0.010055   
     69. D(N   2,C   5,C   3,H  12)    178.8247         0.010055   
     70. D(H  13,C   5,C   3,H  11)    -59.0666         0.010055   
     71. D(C   3,C   5,N   2,H  19)    -58.8165         0.014857   
     72. D(H  13,C   5,N   2,H  18)    175.7751         0.014857   
     73. D(H  14,C   5,C   3,C   4)     62.6672         0.010055   
     74. D(H  13,C   5,N   2,H  19)     64.9161         0.014857   
     75. D(H  14,C   5,C   3,H  12)    -60.6091         0.010055   
     76. D(H  13,C   5,C   3,C   4)    179.3760         0.010055   
     77. D(H  15,C   6,C   4,C   7)    179.7019         0.021473   
     78. D(H  15,C   6,C   4,C   3)     -4.0231         0.021473   
     79. D(C   8,C   6,C   4,C   3)    176.3577         0.021473   
     80. D(C   8,C   6,C   4,C   7)      0.0827         0.021473   
     81. D(H  16,C   7,C   4,C   6)   -179.3856         0.025119   
     82. D(H  16,C   7,C   4,C   3)      4.3858         0.025119   
     83. D(C   9,C   7,C   4,C   6)     -0.0077         0.025119   
     84. D(C   9,C   7,C   4,C   3)   -176.2364         0.025119   
     85. D(C  10,C   8,O   0,H  20)     -0.0964         0.027857   
     86. D(C   6,C   8,O   0,H  20)   -179.5947         0.027857   
     87. D(C  10,C   8,C   6,H  15)   -179.7571         0.028777   
     88. D(C  10,C   8,C   6,C   4)     -0.1356         0.028777   
     89. D(O   0,C   8,C   6,H  15)     -0.3122         0.028777   
     90. D(O   0,C   8,C   6,C   4)    179.3093         0.028777   
     91. D(H  17,C   9,C   7,H  16)      0.0903         0.023684   
     92. D(H  17,C   9,C   7,C   4)   -179.2841         0.023684   
     93. D(C  10,C   9,C   7,H  16)    179.3562         0.023684   
     94. D(C  10,C   9,C   7,C   4)     -0.0182         0.023684   
     95. D(C   8,C  10,C   9,C   7)     -0.0277         0.022194   
     96. D(O   1,C  10,C   9,H  17)     -0.1684         0.022194   
     97. D(O   1,C  10,C   9,C   7)   -179.4485         0.022194   
     98. D(C   9,C  10,C   8,C   6)      0.1057         0.016741   
     99. D(C   9,C  10,C   8,O   0)   -179.4053         0.016741   
    100. D(O   1,C  10,C   8,C   6)    179.6033         0.016741   
    101. D(C   8,C  10,C   9,H  17)    179.2524         0.022194   
    102. D(O   1,C  10,C   8,O   0)      0.0923         0.016741   
    -----------------------------------------------------------------

Number of atoms                         .... 21
Number of degrees of freedom            .... 102

         *************************************************************
         *                GEOMETRY OPTIMIZATION CYCLE   1            *
         *************************************************************
---------------------------------
CARTESIAN COORDINATES (ANGSTROEM)
---------------------------------
  O      2.376810   -1.812678   -0.066593
  O      3.241030    0.515219   -0.524382
  N     -3.034177    0.366492   -1.350337
  C     -2.186810   -0.143437    0.994722
  C     -0.738197    0.074986    0.647221
  C     -3.042834   -0.570941   -0.218314
  C      0.136706   -1.032596    0.492939
  C     -0.232972    1.354394    0.389610
  C      1.446252   -0.829960    0.100438
  C      1.098196    1.570338   -0.011914
  C      1.994908    0.487118   -0.174028
  H     -2.612982    0.790000    1.407773
  H     -2.292377   -0.914908    1.782066
  H     -4.091864   -0.728407    0.092649
  H     -2.670377   -1.540591   -0.588501
  H     -0.219483   -2.049904    0.689823
  H     -0.899035    2.216259    0.516212
  H      1.465535    2.584390   -0.194288
  H     -2.046133    0.548201   -1.569335
  H     -3.380136    1.271784   -1.013535
  H      3.150180   -1.200125   -0.339821

----------------------------
CARTESIAN COORDINATES (A.U.)
----------------------------
  NO LB      ZA    FRAG     MASS         X           Y           Z
   0 O     8.0000    0    15.999    4.491520   -3.425465   -0.125843
   1 O     8.0000    0    15.999    6.124660    0.973623   -0.990938
   2 N     7.0000    0    14.007   -5.733764    0.692569   -2.551767
   3 C     6.0000    0    12.011   -4.132472   -0.271056    1.879751
   4 C     6.0000    0    12.011   -1.394990    0.141703    1.223071
   5 C     6.0000    0    12.011   -5.750122   -1.078923   -0.412553
   6 C     6.0000    0    12.011    0.258337   -1.951323    0.931519
   7 C     6.0000    0    12.011   -0.440254    2.559434    0.736257
   8 C     6.0000    0    12.011    2.733021   -1.568398    0.189800
   9 C     6.0000    0    12.011    2.075290    2.967508   -0.022515
  10 C     6.0000    0    12.011    3.769829    0.920519   -0.328864
  11 H     1.0000    0     1.008   -4.937821    1.492883    2.660305
  12 H     1.0000    0     1.008   -4.331966   -1.728926    3.367617
  13 H     1.0000    0     1.008   -7.732503   -1.376490    0.175081
  14 H     1.0000    0     1.008   -5.046281   -2.911295   -1.112106
  15 H     1.0000    0     1.008   -0.414763   -3.873758    1.303577
  16 H     1.0000    0     1.008   -1.698930    4.188123    0.975498
  17 H     1.0000    0     1.008    2.769460    4.883789   -0.367151
  18 H     1.0000    0     1.008   -3.866631    1.035949   -2.965614
  19 H     1.0000    0     1.008   -6.387532    2.403324   -1.915303
  20 H     1.0000    0     1.008    5.952978   -2.267908   -0.642168

--------------------------------
INTERNAL COORDINATES (ANGSTROEM)
--------------------------------
 O      0   0   0     0.000000000000     0.00000000     0.00000000
 O      1   0   0     2.524985452623     0.00000000     0.00000000
 N      1   2   0     5.972902184209    86.25797729     0.00000000
 C      3   1   2     2.545065272206    55.05708803   255.81562800
 C      4   3   1     1.505637440590    94.50851462    27.62088432
 C      3   1   2     1.469807172950    66.86536066   219.89487837
 C      5   4   3     1.419857374001   120.31596549   255.07468277
 C      5   4   3     1.399464379023   121.49670981    71.22004641
 C      1   2   3     1.363660757402    65.88138527   335.40525950
 C      8   5   4     1.407076006722   122.30119931   183.76364070
 C      2   1   3     1.294743018964    66.51651009    24.64779881
 H      4   3   1     1.106136387688    92.67770352   137.47006719
 H      4   3   1     1.107349944172   139.72824141   257.31284880
 H      6   3   1     1.105422343139   108.24613627   184.79504743
 H      6   3   1     1.102716017917   107.47473331   299.85668462
 H      7   5   4     1.095696920334   120.29296131   355.97691408
 H      8   5   4     1.096575878521   118.55504434     4.38575231
 H     10   8   5     1.093846421728   120.50133237   180.71588885
 H      3   1   2     1.028206876850    40.51091387    26.50805877
 H      3   1   2     1.026000803336   123.83721139   316.59880686
 H      1   2   3     1.023706934829    30.83787087   155.30901859

---------------------------
INTERNAL COORDINATES (A.U.)
---------------------------
 O      0   0   0     0.000000000000     0.00000000     0.00000000
 O      1   0   0     4.771530997593     0.00000000     0.00000000
 N      1   2   0    11.287149352855    86.25797729     0.00000000
 C      3   1   2     4.809476357423    55.05708803   255.81562800
 C      4   3   1     2.845242419693    94.50851462    27.62088432
 C      3   1   2     2.777533026549    66.86536066   219.89487837
 C      5   4   3     2.683141586090   120.31596549   255.07468277
 C      5   4   3     2.644604410532   121.49670981    71.22004641
 C      1   2   3     2.576945371066    65.88138527   335.40525950
 C      8   5   4     2.658988302316   122.30119931   183.76364070
 C      2   1   3     2.446709719648    66.51651009    24.64779881
 H      4   3   1     2.090294839495    92.67770352   137.47006719
 H      4   3   1     2.092588128898   139.72824141   257.31284880
 H      6   3   1     2.088945490850   108.24613627   184.79504743
 H      6   3   1     2.083831277351   107.47473331   299.85668462
 H      7   5   4     2.070567105211   120.29296131   355.97691408
 H      8   5   4     2.072228095469   118.55504434     4.38575231
 H     10   8   5     2.067070169635   120.50133237   180.71588885
 H      3   1   2     1.943029406261    40.51091387    26.50805877
 H      3   1   2     1.938860531488   123.83721139   316.59880686
 H      1   2   3     1.934525748222    30.83787087   155.30901859

---------------------
BASIS SET INFORMATION
---------------------
There are 4 groups of distinct atoms

 Group   1 Type O   : 11s6p2d1f contracted to 5s3p2d1f pattern {62111/411/11/1}
 Group   2 Type N   : 11s6p2d1f contracted to 5s3p2d1f pattern {62111/411/11/1}
 Group   3 Type C   : 11s6p2d1f contracted to 5s3p2d1f pattern {62111/411/11/1}
 Group   4 Type H   : 5s1p contracted to 3s1p pattern {311/1}

Atom   0O    basis set group =>   1
Atom   1O    basis set group =>   1
Atom   2N    basis set group =>   2
Atom   3C    basis set group =>   3
Atom   4C    basis set group =>   3
Atom   5C    basis set group =>   3
Atom   6C    basis set group =>   3
Atom   7C    basis set group =>   3
Atom   8C    basis set group =>   3
Atom   9C    basis set group =>   3
Atom  10C    basis set group =>   3
Atom  11H    basis set group =>   4
Atom  12H    basis set group =>   4
Atom  13H    basis set group =>   4
Atom  14H    basis set group =>   4
Atom  15H    basis set group =>   4
Atom  16H    basis set group =>   4
Atom  17H    basis set group =>   4
Atom  18H    basis set group =>   4
Atom  19H    basis set group =>   4
Atom  20H    basis set group =>   4
---------------------------------
AUXILIARY/J BASIS SET INFORMATION
---------------------------------
There are 4 groups of distinct atoms

 Group   1 Type O   : 12s5p4d2f1g contracted to 6s4p3d1f1g pattern {711111/2111/211/2/1}
 Group   2 Type N   : 12s5p4d2f1g contracted to 6s4p3d1f1g pattern {711111/2111/211/2/1}
 Group   3 Type C   : 12s5p4d2f1g contracted to 6s4p3d1f1g pattern {711111/2111/211/2/1}
 Group   4 Type H   : 5s2p1d contracted to 3s1p1d pattern {311/2/1}

Atom   0O    basis set group =>   1
Atom   1O    basis set group =>   1
Atom   2N    basis set group =>   2
Atom   3C    basis set group =>   3
Atom   4C    basis set group =>   3
Atom   5C    basis set group =>   3
Atom   6C    basis set group =>   3
Atom   7C    basis set group =>   3
Atom   8C    basis set group =>   3
Atom   9C    basis set group =>   3
Atom  10C    basis set group =>   3
Atom  11H    basis set group =>   4
Atom  12H    basis set group =>   4
Atom  13H    basis set group =>   4
Atom  14H    basis set group =>   4
Atom  15H    basis set group =>   4
Atom  16H    basis set group =>   4
Atom  17H    basis set group =>   4
Atom  18H    basis set group =>   4
Atom  19H    basis set group =>   4
Atom  20H    basis set group =>   4


           ************************************************************
           *        Program running with 8 parallel MPI-processes     *
           *              working on a common directory               *
           ************************************************************
------------------------------------------------------------------------------
                           ORCA GTO INTEGRAL CALCULATION
                           -- RI-GTO INTEGRALS CHOSEN --
------------------------------------------------------------------------------
------------------------------------------------------------------------------
                   ___                                                        
                  /   \      - P O W E R E D   B Y -                         
                 /     \                                                     
                 |  |  |   _    _      __       _____    __    __             
                 |  |  |  | |  | |    /  \     |  _  \  |  |  /  |          
                  \  \/   | |  | |   /    \    | | | |  |  | /  /          
                 / \  \   | |__| |  /  /\  \   | |_| |  |  |/  /          
                |  |  |   |  __  | /  /__\  \  |    /   |      \           
                |  |  |   | |  | | |   __   |  |    \   |  |\   \          
                \     /   | |  | | |  |  |  |  | |\  \  |  | \   \       
                 \___/    |_|  |_| |__|  |__|  |_| \__\ |__|  \__/        
                                                                              
                      - O R C A' S   B I G   F R I E N D -                    
                                      &                                       
                       - I N T E G R A L  F E E D E R -                       
                                                                              
 v1 FN, 2020, v2 2021                                                         
------------------------------------------------------------------------------


Reading SHARK input file M0005.SHARKINP.tmp ... ok
----------------------
SHARK INTEGRAL PACKAGE
----------------------

Number of atoms                             ...     21
Number of basis functions                   ...    401
Number of shells                            ...    161
Maximum angular momentum                    ...      3
Integral batch strategy                     ... SHARK/LIBINT Hybrid
RI-J (if used) integral strategy            ... SPLIT-RIJ (Revised 2003 algorithm where possible)
Printlevel                                  ...      1
Contraction scheme used                     ... SEGMENTED contraction
Coulomb Range Separation                    ... NOT USED
Exchange Range Separation                   ... NOT USED
Finite Nucleus Model                        ... NOT USED
Auxiliary Coulomb fitting basis             ... AVAILABLE
   # of basis functions in Aux-J            ...    649
   # of shells in Aux-J                     ...    215
   Maximum angular momentum in Aux-J        ...      4
Auxiliary J/K fitting basis                 ... NOT available
Auxiliary Correlation fitting basis         ... NOT available
Auxiliary 'external' fitting basis          ... NOT available
Integral threshold                          ...     2.500000e-11
Primitive cut-off                           ...     2.500000e-12
Primitive pair pre-selection threshold      ...     2.500000e-12

Calculating pre-screening integrals         ... done (  0.1 sec) Dimension = 161
Organizing shell pair data                  ... done (  0.1 sec)
Shell pair information
Total number of shell pairs                 ...     13041
Shell pairs after pre-screening             ...     11182
Total number of primitive shell pairs       ...     39612
Primitive shell pairs kept                  ...     24574
          la=0 lb=0:   3017 shell pairs
          la=1 lb=0:   3192 shell pairs
          la=1 lb=1:    864 shell pairs
          la=2 lb=0:   1591 shell pairs
          la=2 lb=1:    843 shell pairs
          la=2 lb=2:    221 shell pairs
          la=3 lb=0:    773 shell pairs
          la=3 lb=1:    416 shell pairs
          la=3 lb=2:    208 shell pairs
          la=3 lb=3:     57 shell pairs

Calculating one electron integrals          ... done (  0.0 sec)
Calculating RI/J V-Matrix + Cholesky decomp.... done (  0.0 sec)
Calculating Nuclear repulsion               ... done (  0.0 sec) ENN=    589.412033921766 Eh

SHARK setup successfully completed in   0.3 seconds

Maximum memory used throughout the entire GTOINT-calculation: 19.4 MB


           ************************************************************
           *        Program running with 8 parallel MPI-processes     *
           *              working on a common directory               *
           ************************************************************
-------------------------------------------------------------------------------
                                 ORCA SCF
-------------------------------------------------------------------------------

------------
SCF SETTINGS
------------
Hamiltonian:
 Density Functional     Method          .... DFT(GTOs)
 Exchange Functional    Exchange        .... PBE
   PBE kappa parameter   XKappa         ....  0.804000
   PBE mue parameter    XMuePBE         ....  0.219520
 Correlation Functional Correlation     .... PBE
   PBE beta parameter  CBetaPBE         ....  0.066725
 LDA part of GGA corr.  LDAOpt          .... PW91-LDA
 Gradients option       PostSCFGGA      .... off
   Density functional embedding theory  .... OFF
   NL short-range parameter             ....  6.400000
 RI-approximation to the Coulomb term is turned on
   Number of AuxJ basis functions       .... 649


General Settings:
 Integral files         IntName         .... M0005
 Hartree-Fock type      HFTyp           .... RHF
 Total Charge           Charge          ....   -1
 Multiplicity           Mult            ....    1
 Number of Electrons    NEL             ....   82
 Basis Dimension        Dim             ....  401
 Nuclear Repulsion      ENuc            ....    589.4120339218 Eh

Convergence Acceleration:
 DIIS                   CNVDIIS         .... on
   Start iteration      DIISMaxIt       ....    12
   Startup error        DIISStart       ....  0.200000
   # of expansion vecs  DIISMaxEq       ....     5
   Bias factor          DIISBfac        ....   1.050
   Max. coefficient     DIISMaxC        ....  10.000
 Trust-Rad. Augm. Hess. CNVTRAH         .... auto
   Auto Start mean grad. ratio tolernc. ....  1.125000
   Auto Start start iteration           ....    20
   Auto Start num. interpolation iter.  ....    10
   Max. Number of Micro iterations      ....    16
   Max. Number of Macro iterations      .... Maxiter - #DIIS iter
   Number of Davidson start vectors     ....     2
   Converg. threshold I  (grad. norm)   ....   1.000e-05
   Converg. threshold II (energy diff.) ....   1.000e-08
   Grad. Scal. Fac. for Micro threshold ....   0.100
   Minimum threshold for Micro iter.    ....   0.010
   NR start threshold (gradient norm)   ....   0.001
   Initial trust radius                 ....   0.400
   Minimum AH scaling param. (alpha)    ....   1.000
   Maximum AH scaling param. (alpha)    .... 1000.000
   Orbital update algorithm             .... Taylor
   White noise on init. David. guess    .... on
   Maximum white noise                  ....   0.010
   Quad. conv. algorithm                .... NR
 SOSCF                  CNVSOSCF        .... on
   Start iteration      SOSCFMaxIt      ....   150
   Startup grad/error   SOSCFStart      ....  0.003300
 Level Shifting         CNVShift        .... on
   Level shift para.    LevelShift      ....    0.2500
   Turn off err/grad.   ShiftErr        ....    0.0010
 Zerner damping         CNVZerner       .... off
 Static damping         CNVDamp         .... on
   Fraction old density DampFac         ....    0.7000
   Max. Damping (<1)    DampMax         ....    0.9800
   Min. Damping (>=0)   DampMin         ....    0.0000
   Turn off err/grad.   DampErr         ....    0.1000
 Fernandez-Rico         CNVRico         .... off

SCF Procedure:
 Maximum # iterations   MaxIter         ....   125
 SCF integral mode      SCFMode         .... Direct
   Integral package                     .... SHARK and LIBINT hybrid scheme
 Reset frequency        DirectResetFreq ....    20
 Integral Threshold     Thresh          ....  2.500e-11 Eh
 Primitive CutOff       TCut            ....  2.500e-12 Eh

Convergence Tolerance:
 Convergence Check Mode ConvCheckMode   .... Total+1el-Energy
 Convergence forced     ConvForced      .... 0
 Energy Change          TolE            ....  1.000e-08 Eh
 1-El. energy change                    ....  1.000e-05 Eh
 Orbital Gradient       TolG            ....  1.000e-05
 Orbital Rotation angle TolX            ....  1.000e-05
 DIIS Error             TolErr          ....  5.000e-07


Diagonalization of the overlap matrix:
Smallest eigenvalue                        ... 1.090e-05
Time for diagonalization                   ...    0.111 sec
Threshold for overlap eigenvalues          ... 1.000e-08
Number of eigenvalues below threshold      ... 0
Time for construction of square roots      ...    0.036 sec
Total time needed                          ...    0.151 sec

Time for model grid setup =    0.089 sec

------------------------------
INITIAL GUESS: MODEL POTENTIAL
------------------------------
Loading Hartree-Fock densities                     ... done
Calculating cut-offs                               ... done
Initializing the effective Hamiltonian             ... done
Setting up the integral package (SHARK)            ... done
Starting the Coulomb interaction                   ... done (   0.1 sec)
Reading the grid                                   ... done
Mapping shells                                     ... done
Starting the XC term evaluation                    ... done (   0.1 sec)
  promolecular density results
     # of electrons  =     80.992624061
     EX              =    -66.664713981
     EC              =     -2.701619889
     EX+EC           =    -69.366333870
Transforming the Hamiltonian                       ... done (   0.0 sec)
Diagonalizing the Hamiltonian                      ... done (   0.0 sec)
Back transforming the eigenvectors                 ... done (   0.0 sec)
Now organizing SCF variables                       ... done
                      ------------------
                      INITIAL GUESS DONE (   0.3 sec)
                      ------------------
-------------------
DFT GRID GENERATION
-------------------

General Integration Accuracy     IntAcc      ... 4.388
Radial Grid Type                 RadialGrid  ... OptM3 with GC (2021)
Angular Grid (max. ang.)         AngularGrid ... 4 (Lebedev-302)
Angular grid pruning method      GridPruning ... 4 (adaptive)
Weight generation scheme         WeightScheme... Becke
Basis function cutoff            BFCut       ... 1.0000e-11
Integration weight cutoff        WCut        ... 1.0000e-14
Angular grids for H and He will be reduced by one unit
Partially contracted basis set               ... off
Rotationally invariant grid construction     ... off

Total number of grid points                  ...    98101
Total number of batches                      ...     1542
Average number of points per batch           ...       63
Average number of grid points per atom       ...     4671
Time for grid setup =    0.458 sec

--------------
SCF ITERATIONS
--------------
ITER       Energy         Delta-E        Max-DP      RMS-DP      [F,P]     Damp
               ***  Starting incremental Fock matrix formation  ***
  0   -515.3067638121   0.000000000000 0.91021676  0.00779615  0.3092361 0.7000
  1   -515.5064120647  -0.199648252585 0.72929269  0.00673612  0.0954291 0.7000
                               ***Turning on DIIS***
  2   -515.5701471611  -0.063735096413 0.47385731  0.00593619  0.0255078 0.0000
  3   -515.6730531565  -0.102905995451 0.70012102  0.00622162  0.0581274 0.0000
  4   -515.7010270415  -0.027973884959 0.15504764  0.00159475  0.0286634 0.0000
  5   -515.7039768507  -0.002949809159 0.08835187  0.00093259  0.0099877 0.0000
                      *** Initiating the SOSCF procedure ***
                           *** Shutting down DIIS ***
                      *** Re-Reading the Fockian *** 
                      *** Removing any level shift *** 
ITER      Energy       Delta-E        Grad      Rot      Max-DP    RMS-DP
  6   -515.70425771  -0.0002808617  0.000478  0.000478  0.026137  0.000300
               *** Restarting incremental Fock matrix formation ***
  7   -515.70427962  -0.0000219049  0.000341  0.003071  0.015768  0.000226
  8   -515.70427416   0.0000054605  0.000465  0.001398  0.005707  0.000058
  9   -515.70428475  -0.0000105934  0.000210  0.000844  0.004164  0.000048
 10   -515.70428003   0.0000047194  0.000339  0.000582  0.004383  0.000037
 11   -515.70428626  -0.0000062282  0.000042  0.000342  0.001746  0.000025
 12   -515.70428608   0.0000001794  0.000099  0.000221  0.000673  0.000006
 13   -515.70428631  -0.0000002336  0.000006  0.000082  0.000993  0.000012
 14   -515.70428631   0.0000000072  0.000010  0.000016  0.000214  0.000002
 15   -515.70428633  -0.0000000191  0.000003  0.000037  0.000335  0.000004
 16   -515.70428632   0.0000000004  0.000005  0.000015  0.000074  0.000001
                  ***Gradient check signals convergence***
              ***Rediagonalizing the Fockian in SOSCF/NRSCF***

               *****************************************************
               *                     SUCCESS                       *
               *           SCF CONVERGED AFTER  17 CYCLES          *
               *****************************************************


----------------
TOTAL SCF ENERGY
----------------

Total Energy       :         -515.70428631 Eh          -14033.02706 eV

Components:
Nuclear Repulsion  :          589.41203392 Eh           16038.71684 eV
Electronic Energy  :        -1105.11632024 Eh          -30071.74389 eV
One Electron Energy:        -1883.77066966 Eh          -51260.00593 eV
Two Electron Energy:          778.65434942 Eh           21188.26204 eV

Virial components:
Potential Energy   :        -1029.13617408 Eh          -28004.21900 eV
Kinetic Energy     :          513.43188777 Eh           13971.19195 eV
Virial Ratio       :            2.00442590


DFT components:
N(Alpha)           :       41.000037734668 electrons
N(Beta)            :       41.000037734668 electrons
N(Total)           :       82.000075469336 electrons
E(X)               :      -68.146306304834 Eh       
E(C)               :       -2.740938301894 Eh       
E(XC)              :      -70.887244606728 Eh       
DFET-embed. en.    :        0.000000000000 Eh       

---------------
SCF CONVERGENCE
---------------

  Last Energy change         ...    1.0193e-08  Tolerance :   1.0000e-08
  Last MAX-Density change    ...    9.1857e-05  Tolerance :   1.0000e-07
  Last RMS-Density change    ...    1.5125e-06  Tolerance :   5.0000e-09
  Last Orbital Gradient      ...    1.1590e-06  Tolerance :   1.0000e-05
  Last Orbital Rotation      ...    1.1240e-05  Tolerance :   1.0000e-05

             **** THE GBW FILE WAS UPDATED (M0005.gbw) ****
             **** DENSITY M0005.scfp WAS UPDATED ****
             **** ENERGY FILE WAS UPDATED (M0005.en.tmp) ****
             **** THE GBW FILE WAS UPDATED (M0005.gbw) ****
             **** DENSITY M0005.scfp WAS UPDATED ****
----------------
ORBITAL ENERGIES
----------------

  NO   OCC          E(Eh)            E(eV) 
   0   2.0000     -18.598176      -506.0821 
   1   2.0000     -18.526506      -504.1319 
   2   2.0000     -13.846532      -376.7833 
   3   2.0000      -9.785385      -266.2739 
   4   2.0000      -9.760856      -265.6064 
   5   2.0000      -9.755941      -265.4727 
   6   2.0000      -9.753086      -265.3950 
   7   2.0000      -9.727148      -264.6891 
   8   2.0000      -9.723225      -264.5824 
   9   2.0000      -9.720246      -264.5013 
  10   2.0000      -9.708651      -264.1858 
  11   2.0000      -0.797203       -21.6930 
  12   2.0000      -0.712696       -19.3934 
  13   2.0000      -0.686301       -18.6752 
  14   2.0000      -0.603707       -16.4277 
  15   2.0000      -0.543370       -14.7858 
  16   2.0000      -0.500561       -13.6210 
  17   2.0000      -0.472924       -12.8689 
  18   2.0000      -0.416016       -11.3204 
  19   2.0000      -0.374856       -10.2004 
  20   2.0000      -0.361903        -9.8479 
  21   2.0000      -0.325679        -8.8622 
  22   2.0000      -0.297662        -8.0998 
  23   2.0000      -0.275459        -7.4956 
  24   2.0000      -0.269128        -7.3233 
  25   2.0000      -0.250044        -6.8040 
  26   2.0000      -0.245885        -6.6909 
  27   2.0000      -0.221821        -6.0361 
  28   2.0000      -0.219212        -5.9651 
  29   2.0000      -0.200318        -5.4509 
  30   2.0000      -0.196105        -5.3363 
  31   2.0000      -0.176134        -4.7929 
  32   2.0000      -0.170534        -4.6405 
  33   2.0000      -0.154661        -4.2085 
  34   2.0000      -0.130514        -3.5515 
  35   2.0000      -0.125505        -3.4152 
  36   2.0000      -0.110673        -3.0116 
  37   2.0000      -0.087445        -2.3795 
  38   2.0000      -0.043201        -1.1756 
  39   2.0000      -0.034176        -0.9300 
  40   2.0000       0.008571         0.2332 
  41   0.0000       0.119313         3.2467 
  42   0.0000       0.133194         3.6244 
  43   0.0000       0.140669         3.8278 
  44   0.0000       0.156518         4.2591 
  45   0.0000       0.170406         4.6370 
  46   0.0000       0.174712         4.7542 
  47   0.0000       0.190030         5.1710 
  48   0.0000       0.200092         5.4448 
  49   0.0000       0.206476         5.6185 
  50   0.0000       0.213297         5.8041 
  51   0.0000       0.229326         6.2403 
  52   0.0000       0.233754         6.3608 
  53   0.0000       0.255481         6.9520 
  54   0.0000       0.260845         7.0979 
  55   0.0000       0.280583         7.6350 
  56   0.0000       0.287017         7.8101 
  57   0.0000       0.303878         8.2689 
  58   0.0000       0.313608         8.5337 
  59   0.0000       0.313773         8.5382 
  60   0.0000       0.332633         9.0514 
  61   0.0000       0.345822         9.4103 
  62   0.0000       0.355372         9.6702 
  63   0.0000       0.356290         9.6951 
  64   0.0000       0.371642        10.1129 
  65   0.0000       0.380471        10.3531 
  66   0.0000       0.384765        10.4700 
  67   0.0000       0.391240        10.6462 
  68   0.0000       0.399305        10.8656 
  69   0.0000       0.400571        10.9001 
  70   0.0000       0.413070        11.2402 
  71   0.0000       0.422073        11.4852 
  72   0.0000       0.435916        11.8619 
  73   0.0000       0.444573        12.0974 
  74   0.0000       0.447065        12.1653 
  75   0.0000       0.453744        12.3470 
  76   0.0000       0.459521        12.5042 
  77   0.0000       0.470460        12.8019 
  78   0.0000       0.479944        13.0600 
  79   0.0000       0.485679        13.2160 
  80   0.0000       0.492981        13.4147 
  81   0.0000       0.497043        13.5252 
  82   0.0000       0.514395        13.9974 
  83   0.0000       0.519309        14.1311 
  84   0.0000       0.521003        14.1772 
  85   0.0000       0.531557        14.4644 
  86   0.0000       0.538461        14.6523 
  87   0.0000       0.542541        14.7633 
  88   0.0000       0.548139        14.9156 
  89   0.0000       0.558158        15.1883 
  90   0.0000       0.565774        15.3955 
  91   0.0000       0.576544        15.6886 
  92   0.0000       0.578701        15.7473 
  93   0.0000       0.579097        15.7580 
  94   0.0000       0.594116        16.1667 
  95   0.0000       0.602199        16.3867 
  96   0.0000       0.611681        16.6447 
  97   0.0000       0.632833        17.2202 
  98   0.0000       0.638732        17.3808 
  99   0.0000       0.652178        17.7467 
 100   0.0000       0.655983        17.8502 
 101   0.0000       0.673010        18.3135 
 102   0.0000       0.692957        18.8563 
 103   0.0000       0.702874        19.1262 
 104   0.0000       0.715890        19.4804 
 105   0.0000       0.733952        19.9718 
 106   0.0000       0.735724        20.0201 
 107   0.0000       0.744365        20.2552 
 108   0.0000       0.757016        20.5995 
 109   0.0000       0.768697        20.9173 
 110   0.0000       0.777124        21.1466 
 111   0.0000       0.801487        21.8096 
 112   0.0000       0.812358        22.1054 
 113   0.0000       0.830984        22.6122 
 114   0.0000       0.834508        22.7081 
 115   0.0000       0.854616        23.2553 
 116   0.0000       0.864030        23.5115 
 117   0.0000       0.878123        23.8949 
 118   0.0000       0.895802        24.3760 
 119   0.0000       0.910703        24.7815 
 120   0.0000       0.917778        24.9740 
 121   0.0000       0.934066        25.4172 
 122   0.0000       0.950062        25.8525 
 123   0.0000       0.955543        26.0016 
 124   0.0000       0.970500        26.4086 
 125   0.0000       0.972702        26.4686 
 126   0.0000       0.987690        26.8764 
 127   0.0000       1.000508        27.2252 
 128   0.0000       1.015188        27.6247 
 129   0.0000       1.028731        27.9932 
 130   0.0000       1.063597        28.9420 
 131   0.0000       1.076591        29.2955 
 132   0.0000       1.097538        29.8655 
 133   0.0000       1.116788        30.3894 
 134   0.0000       1.136434        30.9239 
 135   0.0000       1.157615        31.5003 
 136   0.0000       1.177929        32.0531 
 137   0.0000       1.180800        32.1312 
 138   0.0000       1.202089        32.7105 
 139   0.0000       1.206455        32.8293 
 140   0.0000       1.220636        33.2152 
 141   0.0000       1.232573        33.5400 
 142   0.0000       1.260946        34.3121 
 143   0.0000       1.265079        34.4246 
 144   0.0000       1.293136        35.1880 
 145   0.0000       1.316526        35.8245 
 146   0.0000       1.328949        36.1625 
 147   0.0000       1.334268        36.3073 
 148   0.0000       1.355443        36.8835 
 149   0.0000       1.364813        37.1384 
 150   0.0000       1.365970        37.1699 
 151   0.0000       1.399944        38.0944 
 152   0.0000       1.402414        38.1616 
 153   0.0000       1.416895        38.5557 
 154   0.0000       1.442027        39.2395 
 155   0.0000       1.457793        39.6686 
 156   0.0000       1.471093        40.0305 
 157   0.0000       1.479312        40.2541 
 158   0.0000       1.499927        40.8151 
 159   0.0000       1.505998        40.9803 
 160   0.0000       1.521337        41.3977 
 161   0.0000       1.554749        42.3069 
 162   0.0000       1.567712        42.6596 
 163   0.0000       1.588825        43.2341 
 164   0.0000       1.593803        43.3696 
 165   0.0000       1.622599        44.1532 
 166   0.0000       1.630076        44.3566 
 167   0.0000       1.633422        44.4477 
 168   0.0000       1.659932        45.1690 
 169   0.0000       1.666219        45.3401 
 170   0.0000       1.673818        45.5469 
 171   0.0000       1.686384        45.8889 
 172   0.0000       1.705070        46.3973 
 173   0.0000       1.734652        47.2023 
 174   0.0000       1.745943        47.5095 
 175   0.0000       1.776053        48.3289 
 176   0.0000       1.781716        48.4830 
 177   0.0000       1.799261        48.9604 
 178   0.0000       1.809052        49.2268 
 179   0.0000       1.821691        49.5707 
 180   0.0000       1.828875        49.7662 
 181   0.0000       1.850146        50.3450 
 182   0.0000       1.871394        50.9232 
 183   0.0000       1.885985        51.3203 
 184   0.0000       1.890052        51.4309 
 185   0.0000       1.911338        52.0101 
 186   0.0000       1.934573        52.6424 
 187   0.0000       1.944098        52.9016 
 188   0.0000       1.948987        53.0346 
 189   0.0000       1.966801        53.5194 
 190   0.0000       1.968588        53.5680 
 191   0.0000       2.015313        54.8395 
 192   0.0000       2.027397        55.1683 
 193   0.0000       2.041619        55.5553 
 194   0.0000       2.053055        55.8665 
 195   0.0000       2.064934        56.1897 
 196   0.0000       2.081984        56.6537 
 197   0.0000       2.100222        57.1500 
 198   0.0000       2.111342        57.4525 
 199   0.0000       2.116724        57.5990 
 200   0.0000       2.135953        58.1222 
 201   0.0000       2.157987        58.7218 
 202   0.0000       2.160364        58.7865 
 203   0.0000       2.174609        59.1741 
 204   0.0000       2.197037        59.7844 
 205   0.0000       2.235325        60.8263 
 206   0.0000       2.238192        60.9043 
 207   0.0000       2.238899        60.9236 
 208   0.0000       2.270652        61.7876 
 209   0.0000       2.292956        62.3945 
 210   0.0000       2.303877        62.6917 
 211   0.0000       2.311718        62.9051 
 212   0.0000       2.324226        63.2454 
 213   0.0000       2.355441        64.0948 
 214   0.0000       2.371039        64.5193 
 215   0.0000       2.421875        65.9026 
 216   0.0000       2.438997        66.3685 
 217   0.0000       2.448467        66.6262 
 218   0.0000       2.463834        67.0443 
 219   0.0000       2.497644        67.9643 
 220   0.0000       2.503536        68.1247 
 221   0.0000       2.515776        68.4577 
 222   0.0000       2.531162        68.8764 
 223   0.0000       2.546104        69.2830 
 224   0.0000       2.558730        69.6266 
 225   0.0000       2.585486        70.3547 
 226   0.0000       2.592641        70.5494 
 227   0.0000       2.612930        71.1014 
 228   0.0000       2.627063        71.4860 
 229   0.0000       2.642180        71.8974 
 230   0.0000       2.652151        72.1687 
 231   0.0000       2.669844        72.6502 
 232   0.0000       2.684369        73.0454 
 233   0.0000       2.692426        73.2646 
 234   0.0000       2.704854        73.6028 
 235   0.0000       2.718762        73.9813 
 236   0.0000       2.736408        74.4615 
 237   0.0000       2.744980        74.6947 
 238   0.0000       2.757773        75.0428 
 239   0.0000       2.775357        75.5213 
 240   0.0000       2.792910        75.9990 
 241   0.0000       2.809499        76.4504 
 242   0.0000       2.824746        76.8652 
 243   0.0000       2.853967        77.6604 
 244   0.0000       2.858155        77.7743 
 245   0.0000       2.870021        78.0972 
 246   0.0000       2.882398        78.4340 
 247   0.0000       2.883194        78.4557 
 248   0.0000       2.900002        78.9131 
 249   0.0000       2.910442        79.1972 
 250   0.0000       2.942026        80.0566 
 251   0.0000       2.949265        80.2536 
 252   0.0000       2.959781        80.5397 
 253   0.0000       2.979049        81.0640 
 254   0.0000       2.994831        81.4935 
 255   0.0000       3.021304        82.2139 
 256   0.0000       3.028859        82.4194 
 257   0.0000       3.043846        82.8273 
 258   0.0000       3.066692        83.4489 
 259   0.0000       3.079231        83.7901 
 260   0.0000       3.092174        84.1423 
 261   0.0000       3.099220        84.3341 
 262   0.0000       3.105730        84.5112 
 263   0.0000       3.148432        85.6732 
 264   0.0000       3.159648        85.9784 
 265   0.0000       3.178409        86.4889 
 266   0.0000       3.186382        86.7059 
 267   0.0000       3.190702        86.8234 
 268   0.0000       3.210310        87.3570 
 269   0.0000       3.222887        87.6992 
 270   0.0000       3.236489        88.0694 
 271   0.0000       3.239468        88.1504 
 272   0.0000       3.247395        88.3661 
 273   0.0000       3.266229        88.8786 
 274   0.0000       3.281449        89.2928 
 275   0.0000       3.291541        89.5674 
 276   0.0000       3.318064        90.2891 
 277   0.0000       3.321954        90.3950 
 278   0.0000       3.336399        90.7880 
 279   0.0000       3.350311        91.1666 
 280   0.0000       3.362667        91.5028 
 281   0.0000       3.379415        91.9586 
 282   0.0000       3.384993        92.1103 
 283   0.0000       3.403791        92.6219 
 284   0.0000       3.417399        92.9921 
 285   0.0000       3.426901        93.2507 
 286   0.0000       3.439767        93.6008 
 287   0.0000       3.450827        93.9018 
 288   0.0000       3.460782        94.1727 
 289   0.0000       3.482964        94.7763 
 290   0.0000       3.503606        95.3380 
 291   0.0000       3.521564        95.8266 
 292   0.0000       3.526223        95.9534 
 293   0.0000       3.538078        96.2760 
 294   0.0000       3.555137        96.7402 
 295   0.0000       3.556821        96.7860 
 296   0.0000       3.575038        97.2817 
 297   0.0000       3.586194        97.5853 
 298   0.0000       3.598732        97.9265 
 299   0.0000       3.628472        98.7357 
 300   0.0000       3.639238        99.0287 
 301   0.0000       3.676533       100.0435 
 302   0.0000       3.721711       101.2729 
 303   0.0000       3.728733       101.4640 
 304   0.0000       3.746630       101.9510 
 305   0.0000       3.763368       102.4064 
 306   0.0000       3.789307       103.1123 
 307   0.0000       3.812554       103.7449 
 308   0.0000       3.845365       104.6377 
 309   0.0000       3.880496       105.5937 
 310   0.0000       3.896716       106.0350 
 311   0.0000       3.906646       106.3052 
 312   0.0000       3.938527       107.1728 
 313   0.0000       3.957228       107.6817 
 314   0.0000       3.985731       108.4573 
 315   0.0000       4.003499       108.9408 
 316   0.0000       4.019619       109.3794 
 317   0.0000       4.034461       109.7833 
 318   0.0000       4.071327       110.7865 
 319   0.0000       4.129664       112.3739 
 320   0.0000       4.135208       112.5247 
 321   0.0000       4.149895       112.9244 
 322   0.0000       4.185282       113.8873 
 323   0.0000       4.196668       114.1971 
 324   0.0000       4.214907       114.6935 
 325   0.0000       4.238313       115.3304 
 326   0.0000       4.245495       115.5258 
 327   0.0000       4.266720       116.1034 
 328   0.0000       4.282799       116.5409 
 329   0.0000       4.311013       117.3086 
 330   0.0000       4.324308       117.6704 
 331   0.0000       4.349777       118.3635 
 332   0.0000       4.372451       118.9804 
 333   0.0000       4.387280       119.3839 
 334   0.0000       4.425197       120.4157 
 335   0.0000       4.466909       121.5508 
 336   0.0000       4.471391       121.6727 
 337   0.0000       4.499728       122.4438 
 338   0.0000       4.553647       123.9110 
 339   0.0000       4.597107       125.0936 
 340   0.0000       4.639274       126.2411 
 341   0.0000       4.655874       126.6928 
 342   0.0000       4.685319       127.4940 
 343   0.0000       4.722467       128.5049 
 344   0.0000       4.765189       129.6674 
 345   0.0000       4.816998       131.0772 
 346   0.0000       4.850803       131.9971 
 347   0.0000       4.887534       132.9966 
 348   0.0000       4.907755       133.5468 
 349   0.0000       4.919799       133.8745 
 350   0.0000       4.945971       134.5867 
 351   0.0000       4.960944       134.9941 
 352   0.0000       4.984118       135.6248 
 353   0.0000       5.050967       137.4438 
 354   0.0000       5.067443       137.8921 
 355   0.0000       5.093244       138.5942 
 356   0.0000       5.122106       139.3796 
 357   0.0000       5.143700       139.9672 
 358   0.0000       5.234352       142.4340 
 359   0.0000       5.277465       143.6071 
 360   0.0000       5.304528       144.3435 
 361   0.0000       5.340317       145.3174 
 362   0.0000       5.351429       145.6198 
 363   0.0000       5.363944       145.9603 
 364   0.0000       5.418009       147.4315 
 365   0.0000       5.422611       147.5567 
 366   0.0000       5.515211       150.0765 
 367   0.0000       5.546448       150.9265 
 368   0.0000       5.617144       152.8503 
 369   0.0000       5.619589       152.9168 
 370   0.0000       5.670683       154.3071 
 371   0.0000       5.743977       156.3016 
 372   0.0000       5.810573       158.1137 
 373   0.0000       5.835121       158.7817 
 374   0.0000       5.938921       161.6063 
 375   0.0000       6.085923       165.6064 
 376   0.0000       6.136190       166.9742 
 377   0.0000       6.273295       170.7050 
 378   0.0000       6.401667       174.1982 
 379   0.0000       6.438803       175.2087 
 380   0.0000       6.471731       176.1047 
 381   0.0000       6.693598       182.1421 
 382   0.0000       6.711371       182.6257 
 383   0.0000       6.743409       183.4975 
 384   0.0000       6.865601       186.8225 
 385   0.0000       6.885967       187.3767 
 386   0.0000       7.026196       191.1925 
 387   0.0000       7.092180       192.9880 
 388   0.0000       7.161976       194.8873 
 389   0.0000       7.317749       199.1261 
 390   0.0000      22.119827       601.9111 
 391   0.0000      22.252405       605.5187 
 392   0.0000      22.386289       609.1619 
 393   0.0000      22.559859       613.8850 
 394   0.0000      22.605366       615.1233 
 395   0.0000      22.820426       620.9754 
 396   0.0000      22.855759       621.9368 
 397   0.0000      23.341140       635.1447 
 398   0.0000      31.742281       863.7514 
 399   0.0000      43.643718      1187.6060 
 400   0.0000      43.851044      1193.2476 

                    ********************************
                    * MULLIKEN POPULATION ANALYSIS *
                    ********************************

-----------------------
MULLIKEN ATOMIC CHARGES
-----------------------
   0 O :   -0.413998
   1 O :   -0.535092
   2 N :   -0.473695
   3 C :   -0.225932
   4 C :    0.258772
   5 C :   -0.063606
   6 C :   -0.349626
   7 C :   -0.272759
   8 C :    0.142114
   9 C :   -0.230365
  10 C :    0.202322
  11 H :    0.068217
  12 H :    0.047819
  13 H :    0.049579
  14 H :    0.077496
  15 H :    0.019861
  16 H :    0.013111
  17 H :    0.008768
  18 H :    0.226103
  19 H :    0.171440
  20 H :    0.279473
Sum of atomic charges:   -1.0000000

--------------------------------
MULLIKEN REDUCED ORBITAL CHARGES
--------------------------------
  0 O s       :     3.750819  s :     3.750819
      pz      :     1.752546  p :     4.629569
      px      :     1.338341
      py      :     1.538683
      dz2     :     0.003849  d :     0.032159
      dxz     :     0.003204
      dyz     :     0.005633
      dx2y2   :     0.005971
      dxy     :     0.013502
      f0      :     0.000265  f :     0.001451
      f+1     :     0.000225
      f-1     :     0.000187
      f+2     :     0.000030
      f-2     :     0.000247
      f+3     :     0.000178
      f-3     :     0.000319
  1 O s       :     3.796951  s :     3.796951
      pz      :     1.594103  p :     4.709198
      px      :     1.363520
      py      :     1.751574
      dz2     :     0.003504  d :     0.027534
      dxz     :     0.008101
      dyz     :     0.000779
      dx2y2   :     0.009035
      dxy     :     0.006115
      f0      :     0.000135  f :     0.001410
      f+1     :     0.000276
      f-1     :     0.000020
      f+2     :     0.000281
      f-2     :     0.000071
      f+3     :     0.000309
      f-3     :     0.000317
  2 N s       :     3.519758  s :     3.519758
      pz      :     1.469781  p :     3.910605
      px      :     1.309228
      py      :     1.131595
      dz2     :     0.011419  d :     0.041335
      dxz     :     0.005541
      dyz     :     0.008693
      dx2y2   :     0.010345
      dxy     :     0.005337
      f0      :     0.000374  f :     0.001997
      f+1     :     0.000281
      f-1     :     0.000323
      f+2     :     0.000367
      f-2     :     0.000367
      f+3     :     0.000252
      f-3     :     0.000034
  3 C s       :     3.171690  s :     3.171690
      pz      :     0.984457  p :     2.955526
      px      :     0.950610
      py      :     1.020458
      dz2     :     0.013222  d :     0.093419
      dxz     :     0.024974
      dyz     :     0.017255
      dx2y2   :     0.018664
      dxy     :     0.019305
      f0      :     0.000697  f :     0.005297
      f+1     :     0.000925
      f-1     :     0.000504
      f+2     :     0.001317
      f-2     :     0.000505
      f+3     :     0.000640
      f-3     :     0.000711
  4 C s       :     3.112696  s :     3.112696
      pz      :     0.989768  p :     2.488882
      px      :     0.749705
      py      :     0.749409
      dz2     :     0.009401  d :     0.130298
      dxz     :     0.019660
      dyz     :     0.028475
      dx2y2   :     0.036894
      dxy     :     0.035867
      f0      :     0.001241  f :     0.009352
      f+1     :     0.000936
      f-1     :     0.000739
      f+2     :     0.000881
      f-2     :     0.001373
      f+3     :     0.001448
      f-3     :     0.002735
  5 C s       :     3.128077  s :     3.128077
      pz      :     0.884042  p :     2.817048
      px      :     0.987378
      py      :     0.945628
      dz2     :     0.038063  d :     0.111182
      dxz     :     0.020724
      dyz     :     0.021939
      dx2y2   :     0.018758
      dxy     :     0.011698
      f0      :     0.001422  f :     0.007300
      f+1     :     0.000624
      f-1     :     0.001532
      f+2     :     0.001501
      f-2     :     0.001410
      f+3     :     0.000592
      f-3     :     0.000218
  6 C s       :     3.328431  s :     3.328431
      pz      :     1.097981  p :     2.935746
      px      :     0.990355
      py      :     0.847411
      dz2     :     0.007168  d :     0.078531
      dxz     :     0.019558
      dyz     :     0.008589
      dx2y2   :     0.020067
      dxy     :     0.023149
      f0      :     0.001039  f :     0.006917
      f+1     :     0.001091
      f-1     :     0.000575
      f+2     :     0.000565
      f-2     :     0.000956
      f+3     :     0.000955
      f-3     :     0.001737
  7 C s       :     3.278304  s :     3.278304
      pz      :     1.070709  p :     2.894704
      px      :     0.932151
      py      :     0.891844
      dz2     :     0.009700  d :     0.092964
      dxz     :     0.018675
      dyz     :     0.013738
      dx2y2   :     0.016383
      dxy     :     0.034468
      f0      :     0.000918  f :     0.006787
      f+1     :     0.001057
      f-1     :     0.000638
      f+2     :     0.001020
      f-2     :     0.000501
      f+3     :     0.001018
      f-3     :     0.001634
  8 C s       :     3.063990  s :     3.063990
      pz      :     0.966768  p :     2.629857
      px      :     0.819614
      py      :     0.843475
      dz2     :     0.012055  d :     0.148939
      dxz     :     0.034322
      dyz     :     0.026195
      dx2y2   :     0.043851
      dxy     :     0.032517
      f0      :     0.001674  f :     0.015100
      f+1     :     0.001582
      f-1     :     0.001073
      f+2     :     0.000970
      f-2     :     0.002590
      f+3     :     0.003203
      f-3     :     0.004009
  9 C s       :     3.269779  s :     3.269779
      pz      :     1.100636  p :     2.880300
      px      :     0.901968
      py      :     0.877695
      dz2     :     0.007062  d :     0.073654
      dxz     :     0.016960
      dyz     :     0.007996
      dx2y2   :     0.020772
      dxy     :     0.020865
      f0      :     0.001022  f :     0.006633
      f+1     :     0.001095
      f-1     :     0.000528
      f+2     :     0.000556
      f-2     :     0.000875
      f+3     :     0.001062
      f-3     :     0.001495
 10 C s       :     3.035453  s :     3.035453
      pz      :     0.904807  p :     2.558554
      px      :     0.831403
      py      :     0.822344
      dz2     :     0.018331  d :     0.188148
      dxz     :     0.045658
      dyz     :     0.020298
      dx2y2   :     0.032188
      dxy     :     0.071673
      f0      :     0.001599  f :     0.015523
      f+1     :     0.002013
      f-1     :     0.000680
      f+2     :     0.002135
      f-2     :     0.001552
      f+3     :     0.002502
      f-3     :     0.005042
 11 H s       :     0.911059  s :     0.911059
      pz      :     0.005821  p :     0.020724
      px      :     0.005574
      py      :     0.009329
 12 H s       :     0.931362  s :     0.931362
      pz      :     0.008624  p :     0.020820
      px      :     0.004694
      py      :     0.007501
 13 H s       :     0.930167  s :     0.930167
      pz      :     0.004608  p :     0.020254
      px      :     0.011215
      py      :     0.004431
 14 H s       :     0.901970  s :     0.901970
      pz      :     0.004916  p :     0.020535
      px      :     0.005231
      py      :     0.010387
 15 H s       :     0.958458  s :     0.958458
      pz      :     0.005923  p :     0.021681
      px      :     0.004731
      py      :     0.011026
 16 H s       :     0.965232  s :     0.965232
      pz      :     0.005777  p :     0.021657
      px      :     0.007039
      py      :     0.008841
 17 H s       :     0.969279  s :     0.969279
      pz      :     0.006179  p :     0.021953
      px      :     0.004908
      py      :     0.010866
 18 H s       :     0.738054  s :     0.738054
      pz      :     0.010402  p :     0.035843
      px      :     0.018123
      py      :     0.007318
 19 H s       :     0.792861  s :     0.792861
      pz      :     0.010160  p :     0.035699
      px      :     0.010181
      py      :     0.015357
 20 H s       :     0.667964  s :     0.667964
      pz      :     0.014026  p :     0.052564
      px      :     0.015942
      py      :     0.022596


                     *******************************
                     * LOEWDIN POPULATION ANALYSIS *
                     *******************************

----------------------
LOEWDIN ATOMIC CHARGES
----------------------
   0 O :    0.028252
   1 O :   -0.108027
   2 N :   -0.181928
   3 C :   -0.267619
   4 C :   -0.217142
   5 C :   -0.358363
   6 C :   -0.163877
   7 C :   -0.204432
   8 C :   -0.294101
   9 C :   -0.195352
  10 C :   -0.395505
  11 H :    0.130139
  12 H :    0.131462
  13 H :    0.111346
  14 H :    0.126071
  15 H :    0.130476
  16 H :    0.123699
  17 H :    0.122469
  18 H :    0.158097
  19 H :    0.137231
  20 H :    0.187103

-------------------------------
LOEWDIN REDUCED ORBITAL CHARGES
-------------------------------
  0 O s       :     3.364592  s :     3.364592
      pz      :     1.654894  p :     4.530125
      px      :     1.333525
      py      :     1.541706
      dz2     :     0.007275  d :     0.071981
      dxz     :     0.009700
      dyz     :     0.009286
      dx2y2   :     0.017142
      dxy     :     0.028579
      f0      :     0.000529  f :     0.005049
      f+1     :     0.000442
      f-1     :     0.000361
      f+2     :     0.000048
      f-2     :     0.000900
      f+3     :     0.001254
      f-3     :     0.001515
  1 O s       :     3.439439  s :     3.439439
      pz      :     1.520976  p :     4.600281
      px      :     1.453966
      py      :     1.625338
      dz2     :     0.007585  d :     0.063455
      dxz     :     0.016745
      dyz     :     0.001532
      dx2y2   :     0.020558
      dxy     :     0.017035
      f0      :     0.000421  f :     0.004851
      f+1     :     0.000814
      f-1     :     0.000054
      f+2     :     0.000897
      f-2     :     0.000272
      f+3     :     0.001077
      f-3     :     0.001316
  2 N s       :     3.117371  s :     3.117371
      pz      :     1.440206  p :     3.916034
      px      :     1.283805
      py      :     1.192023
      dz2     :     0.033146  d :     0.138264
      dxz     :     0.017627
      dyz     :     0.030207
      dx2y2   :     0.036294
      dxy     :     0.020991
      f0      :     0.002054  f :     0.010258
      f+1     :     0.001238
      f-1     :     0.001557
      f+2     :     0.001533
      f-2     :     0.001494
      f+3     :     0.001630
      f-3     :     0.000753
  3 C s       :     2.785021  s :     2.785021
      pz      :     1.010378  p :     3.044502
      px      :     1.019583
      py      :     1.014540
      dz2     :     0.054763  d :     0.400675
      dxz     :     0.105825
      dyz     :     0.090446
      dx2y2   :     0.076440
      dxy     :     0.073201
      f0      :     0.005705  f :     0.037421
      f+1     :     0.006979
      f-1     :     0.003276
      f+2     :     0.006579
      f-2     :     0.004112
      f+3     :     0.005360
      f-3     :     0.005411
  4 C s       :     2.712713  s :     2.712713
      pz      :     0.926762  p :     2.926345
      px      :     0.956711
      py      :     1.042872
      dz2     :     0.039819  d :     0.522059
      dxz     :     0.068464
      dyz     :     0.098276
      dx2y2   :     0.164310
      dxy     :     0.151189
      f0      :     0.004065  f :     0.056025
      f+1     :     0.004392
      f-1     :     0.005158
      f+2     :     0.005516
      f-2     :     0.008929
      f+3     :     0.010331
      f-3     :     0.017634
  5 C s       :     2.809722  s :     2.809722
      pz      :     0.993378  p :     3.014666
      px      :     1.027578
      py      :     0.993709
      dz2     :     0.137436  d :     0.483153
      dxz     :     0.093802
      dyz     :     0.109053
      dx2y2   :     0.094760
      dxy     :     0.048101
      f0      :     0.010887  f :     0.050822
      f+1     :     0.005215
      f-1     :     0.009847
      f+2     :     0.007521
      f-2     :     0.009300
      f+3     :     0.005230
      f-3     :     0.002823
  6 C s       :     2.762273  s :     2.762273
      pz      :     0.985280  p :     2.986857
      px      :     1.024236
      py      :     0.977341
      dz2     :     0.032928  d :     0.373325
      dxz     :     0.073138
      dyz     :     0.032504
      dx2y2   :     0.126144
      dxy     :     0.108611
      f0      :     0.003380  f :     0.041421
      f+1     :     0.004538
      f-1     :     0.003092
      f+2     :     0.004731
      f-2     :     0.006267
      f+3     :     0.008003
      f-3     :     0.011410
  7 C s       :     2.767542  s :     2.767542
      pz      :     0.968919  p :     2.988579
      px      :     1.022220
      py      :     0.997440
      dz2     :     0.041533  d :     0.406931
      dxz     :     0.066399
      dyz     :     0.049953
      dx2y2   :     0.098025
      dxy     :     0.151022
      f0      :     0.002992  f :     0.041380
      f+1     :     0.004236
      f-1     :     0.003588
      f+2     :     0.007570
      f-2     :     0.003415
      f+3     :     0.008377
      f-3     :     0.011202
  8 C s       :     2.732935  s :     2.732935
      pz      :     0.902288  p :     2.802322
      px      :     0.969574
      py      :     0.930460
      dz2     :     0.062479  d :     0.666311
      dxz     :     0.116436
      dyz     :     0.096788
      dx2y2   :     0.187525
      dxy     :     0.203082
      f0      :     0.006867  f :     0.092532
      f+1     :     0.007180
      f-1     :     0.007616
      f+2     :     0.006527
      f-2     :     0.017816
      f+3     :     0.021274
      f-3     :     0.025252
  9 C s       :     2.777487  s :     2.777487
      pz      :     0.994346  p :     3.017095
      px      :     1.039654
      py      :     0.983095
      dz2     :     0.033306  d :     0.361358
      dxz     :     0.066997
      dyz     :     0.027519
      dx2y2   :     0.119769
      dxy     :     0.113768
      f0      :     0.003196  f :     0.039412
      f+1     :     0.004778
      f-1     :     0.003046
      f+2     :     0.004227
      f-2     :     0.005376
      f+3     :     0.008151
      f-3     :     0.010638
 10 C s       :     2.731323  s :     2.731323
      pz      :     0.852230  p :     2.805431
      px      :     0.930171
      py      :     1.023030
      dz2     :     0.070963  d :     0.758518
      dxz     :     0.160257
      dyz     :     0.073854
      dx2y2   :     0.203317
      dxy     :     0.250127
      f0      :     0.006364  f :     0.100234
      f+1     :     0.011568
      f-1     :     0.004491
      f+2     :     0.017070
      f-2     :     0.009612
      f+3     :     0.017143
      f-3     :     0.033986
 11 H s       :     0.813141  s :     0.813141
      pz      :     0.015024  p :     0.056720
      px      :     0.014754
      py      :     0.026943
 12 H s       :     0.811348  s :     0.811348
      pz      :     0.022418  p :     0.057190
      px      :     0.012542
      py      :     0.022230
 13 H s       :     0.831812  s :     0.831812
      pz      :     0.012843  p :     0.056842
      px      :     0.031321
      py      :     0.012678
 14 H s       :     0.816388  s :     0.816388
      pz      :     0.013991  p :     0.057541
      px      :     0.015394
      py      :     0.028156
 15 H s       :     0.810868  s :     0.810868
      pz      :     0.016226  p :     0.058656
      px      :     0.013421
      py      :     0.029009
 16 H s       :     0.818420  s :     0.818420
      pz      :     0.015681  p :     0.057881
      px      :     0.018956
      py      :     0.023244
 17 H s       :     0.818496  s :     0.818496
      pz      :     0.016535  p :     0.059035
      px      :     0.013738
      py      :     0.028762
 18 H s       :     0.733022  s :     0.733022
      pz      :     0.029177  p :     0.108881
      px      :     0.059342
      py      :     0.020362
 19 H s       :     0.755712  s :     0.755712
      pz      :     0.033259  p :     0.107056
      px      :     0.027502
      py      :     0.046296
 20 H s       :     0.644562  s :     0.644562
      pz      :     0.037782  p :     0.168334
      px      :     0.055959
      py      :     0.074593


                      *****************************
                      * MAYER POPULATION ANALYSIS *
                      *****************************

  NA   - Mulliken gross atomic population
  ZA   - Total nuclear charge
  QA   - Mulliken gross atomic charge
  VA   - Mayer's total valence
  BVA  - Mayer's bonded valence
  FA   - Mayer's free valence

  ATOM       NA         ZA         QA         VA         BVA        FA
  0 O      8.4140     8.0000    -0.4140     2.0494     2.0494     0.0000
  1 O      8.5351     8.0000    -0.5351     2.0186     2.0186     0.0000
  2 N      7.4737     7.0000    -0.4737     3.0105     3.0105     0.0000
  3 C      6.2259     6.0000    -0.2259     3.8520     3.8520    -0.0000
  4 C      5.7412     6.0000     0.2588     3.4765     3.4765    -0.0000
  5 C      6.0636     6.0000    -0.0636     3.9237     3.9237     0.0000
  6 C      6.3496     6.0000    -0.3496     3.9892     3.9892    -0.0000
  7 C      6.2728     6.0000    -0.2728     3.9844     3.9844    -0.0000
[...]
     14      -0.000482  -0.000153  -0.000034   0.000073  -0.000931   0.000915
     15      -0.016803  -0.053982   0.024839   0.053588   0.000762   0.000238
     16      -0.006196  -0.039090  -0.008793  -0.060031  -0.001078  -0.001008
     17       0.003562   0.007567  -0.011863  -0.033231  -0.000485  -0.000285
     18      -0.001108   0.000516  -0.000266   0.000278  -0.004917  -0.028557
     19      -0.001259   0.000805  -0.000867   0.001222  -0.008921  -0.077581
     20       0.000592  -0.000196   0.000548  -0.000146   0.002187   0.015450
     21      -0.001634   0.000803   0.001302  -0.001469   0.047904  -0.003662
     22       0.000685  -0.000372  -0.001670   0.001493  -0.063640   0.007149
     23       0.000113  -0.000296  -0.000671   0.000470  -0.009059   0.000593
     24       0.000353   0.000195   0.000022  -0.000180   0.000452   0.004434
     25       0.000213  -0.000264   0.000326   0.000009  -0.000092  -0.002008
     26      -0.000027  -0.000025   0.000010   0.000050  -0.000142  -0.001163
     27       0.000410  -0.000349  -0.000204   0.000177   0.005805  -0.002650
     28       0.000161   0.000030   0.000037  -0.000098   0.020675  -0.007143
     29      -0.000049   0.000075   0.000043  -0.000049  -0.003123   0.001300
     30      -0.000400   0.000289   0.000127  -0.000089   0.000574  -0.000064
     31      -0.000061  -0.000141  -0.000117   0.000052   0.000939   0.000989
     32       0.000218  -0.000105  -0.000034   0.000033  -0.000196  -0.000112
     33      -0.189719   0.099290   0.299141  -0.097401  -0.016009   0.004772
     34       0.435293  -0.221662  -0.656566   0.220652   0.025370  -0.005814
     35       0.173881  -0.095646  -0.294491   0.097619   0.012600  -0.003726
     36      -0.064210   0.004819  -0.049043   0.008159  -0.000955   0.004747
     37      -0.583914   0.089671  -0.365357   0.071906   0.000716   0.014246
     38       0.574116  -0.090658   0.384291  -0.078597   0.000101  -0.015777
     39       0.232225   0.808771  -0.240159  -0.347762  -0.006230   0.003415
     40       0.030397   0.103942  -0.036590  -0.057798  -0.000636   0.000642
     41      -0.074683  -0.243269   0.071787   0.097969   0.000970  -0.000257
     42      -0.026797  -0.162033  -0.060807  -0.297876  -0.004454  -0.003661
     43       0.050496   0.371093   0.167845   0.773692   0.013527   0.011113
     44       0.020417   0.146772   0.063204   0.299921   0.005677   0.005275
     45       0.007096  -0.004333   0.003626  -0.005275   0.040593   0.324143
     46       0.016329  -0.011642   0.004955  -0.011823   0.108744   0.914504
     47      -0.005079   0.002383  -0.002431   0.001939  -0.021639  -0.178030
     48       0.011665  -0.005849  -0.014076   0.014859  -0.573552   0.056585
     49      -0.013376   0.006866   0.013669  -0.017557   0.747944  -0.076452
     50      -0.003387   0.001598   0.004056  -0.003213   0.108215  -0.010788
     51       0.000278  -0.000116  -0.000910   0.000824  -0.089781   0.030378
     52      -0.000508   0.000211  -0.003060   0.002513  -0.259576   0.086764
     53      -0.000033   0.000387   0.001066  -0.000775   0.045188  -0.015321
     54      -0.006980  -0.017986   0.006402   0.005522  -0.003983   0.001227
     55      -0.001343  -0.003371   0.001259  -0.000085  -0.001999   0.000255
     56       0.002786   0.001121   0.001379   0.003393   0.000825  -0.000919
     57       0.000243   0.002342   0.002712   0.008141   0.000363   0.000210
     58       0.001797  -0.008755  -0.006102  -0.020070  -0.003520  -0.000384
     59      -0.000724  -0.000833   0.001244  -0.014638  -0.001589  -0.000542
     60       0.005021  -0.016114   0.013459  -0.002098   0.007456  -0.028475
     61       0.003025  -0.008535   0.007217  -0.001152   0.004856  -0.014418
     62      -0.001791   0.005360  -0.004502   0.000699  -0.002525   0.009288
                 60         61         62    
      0      -0.000407  -0.000024  -0.000037
      1      -0.000040   0.000033   0.000017
      2       0.000115  -0.000003   0.000015
      3      -0.000785  -0.000057  -0.000041
      4       0.000043  -0.000009   0.000003
      5       0.000225   0.000010   0.000000
      6      -0.000106   0.034863   0.061078
      7      -0.000142   0.044515  -0.041259
      8       0.000068  -0.002444  -0.027391
      9      -0.000340   0.000132  -0.000117
     10       0.000332  -0.000332   0.000273
     11       0.000440   0.000482   0.000354
     12      -0.000989  -0.000446  -0.000133
     13      -0.001497  -0.000318  -0.000221
     14       0.000439  -0.000035  -0.000006
     15      -0.000156   0.001882   0.002431
     16       0.000084   0.002891  -0.001699
     17       0.000003   0.001260  -0.002073
     18      -0.001792   0.000093  -0.000022
     19      -0.004909  -0.000079  -0.000071
     20       0.000980  -0.000031   0.000007
     21      -0.017191  -0.000129  -0.000010
     22       0.019472   0.000635   0.000104
     23       0.003510  -0.000105  -0.000113
     24      -0.000260   0.000002   0.000004
     25      -0.000403  -0.000086  -0.000027
     26       0.000134   0.000013   0.000006
     27       0.027432   0.000091   0.000091
     28       0.076172   0.000057   0.000036
     29      -0.013699   0.000018  -0.000021
     30       0.003897   0.000076   0.000057
     31      -0.001284   0.000044   0.000028
     32      -0.001027  -0.000005  -0.000009
     33       0.003910  -0.000958   0.002186
     34      -0.005633  -0.001507  -0.001556
     35      -0.002822  -0.003119   0.001186
     36       0.001564   0.001848   0.000345
     37       0.003233  -0.000303   0.001796
     38      -0.003423   0.001196  -0.001513
     39       0.002303  -0.011912  -0.013523
     40       0.000232   0.000589  -0.000560
     41      -0.000116   0.004450   0.006092
     42       0.000231   0.007721  -0.008683
     43      -0.001227  -0.013437   0.014722
     44      -0.000497  -0.007789   0.007287
     45       0.019947   0.000025   0.000252
     46       0.058058   0.000525   0.001111
     47      -0.011082  -0.000014  -0.000292
     48       0.174110   0.003360   0.000060
     49      -0.221563  -0.004717  -0.000187
     50      -0.033229  -0.000748   0.000101
     51      -0.315638  -0.000343  -0.000068
     52      -0.885135  -0.000810  -0.000169
     53       0.157724   0.000256   0.000029
     54       0.002018  -0.751808  -0.581160
     55       0.000696  -0.104664  -0.118820
     56      -0.001178   0.209367   0.137644
     57      -0.000526   0.248666  -0.274652
     58       0.001272  -0.527978   0.695293
     59       0.000218  -0.188859   0.252082
     60       0.006157  -0.000022   0.000335
     61       0.003807  -0.000159   0.000168
     62      -0.002091   0.000078  -0.000116


-----------
IR SPECTRUM
-----------

 Mode   freq       eps      Int      T**2         TX        TY        TZ
       cm**-1   L/(mol*cm) km/mol    a.u.
----------------------------------------------------------------------------
  6:     41.24   0.000045    0.22  0.000337  (-0.006211 -0.008894  0.014803)
  7:     72.23   0.000147    0.74  0.000637  (-0.015289  0.007452 -0.018635)
  8:    140.20   0.000145    0.73  0.000323  ( 0.016671 -0.006331  0.002261)
  9:    182.00   0.000051    0.26  0.000087  ( 0.007991  0.002398 -0.004132)
 10:    237.20   0.000800    4.04  0.001053  (-0.009223  0.006677 -0.030386)
 11:    291.51   0.005127   25.91  0.005488  (-0.040533  0.060256  0.014654)
 12:    310.32   0.003658   18.48  0.003678  (-0.047387  0.002861  0.037742)
 13:    327.36   0.003203   16.19  0.003053  (-0.006762  0.053940  0.009902)
 14:    355.00   0.002098   10.60  0.001844  ( 0.027993 -0.030845  0.010454)
 15:    416.18   0.001041    5.26  0.000781  ( 0.012236 -0.006479  0.024266)
 16:    421.55   0.000606    3.06  0.000449  (-0.019544 -0.006591  0.004847)
 17:    473.97   0.000059    0.30  0.000039  ( 0.001524  0.002409  0.005532)
 18:    507.91   0.001798    9.09  0.001105  (-0.031872  0.008457 -0.004200)
 19:    597.62   0.000143    0.73  0.000075  (-0.004381  0.007149 -0.002151)
 20:    613.27   0.001453    7.34  0.000739  ( 0.002178  0.004364  0.026748)
 21:    699.27   0.002356   11.91  0.001051  (-0.031576 -0.005777 -0.004573)
 22:    703.22   0.000617    3.12  0.000274  ( 0.002468 -0.001055  0.016327)
 23:    772.89   0.004197   21.21  0.001695  (-0.015428  0.000807 -0.038156)
 24:    787.11   0.002745   13.87  0.001088  (-0.032448  0.004961 -0.003283)
 25:    799.40   0.002796   14.13  0.001092  (-0.004794 -0.003670 -0.032483)
 26:    805.91   0.000446    2.26  0.000173  ( 0.007300 -0.000735  0.010907)
 27:    838.33   0.000488    2.47  0.000182  (-0.012383 -0.003570 -0.003953)
 28:    857.88   0.009836   49.71  0.003578  (-0.033205  0.026922 -0.041839)
 29:    877.87   0.014315   72.34  0.005089  (-0.022378 -0.003856 -0.067625)
 30:    910.93   0.014300   72.27  0.004899  ( 0.035578 -0.001306  0.060261)
 31:    942.30   0.007252   36.65  0.002402  ( 0.029749 -0.035156  0.016757)
 32:    984.43   0.016898   85.40  0.005357  (-0.043315  0.010267 -0.058096)
 33:   1053.47   0.000701    3.54  0.000208  ( 0.011529 -0.000209  0.008640)
 34:   1091.06   0.006409   32.39  0.001833  ( 0.035100  0.024437  0.001953)
 35:   1111.03   0.000453    2.29  0.000127  (-0.003585  0.006497  0.008497)
 36:   1129.49   0.003520   17.79  0.000972  ( 0.020746 -0.022332  0.006583)
 37:   1182.51   0.000400    2.02  0.000105  (-0.010056  0.001802 -0.001038)
 38:   1196.98   0.001877    9.49  0.000489  (-0.016442  0.004302 -0.014161)
 39:   1232.88   0.004633   23.42  0.001173  (-0.030535  0.012307  0.009431)
 40:   1277.32   0.004307   21.77  0.001052  (-0.011700  0.030002 -0.003895)
 41:   1297.53   0.041927  211.88  0.010084  ( 0.083349 -0.049261 -0.026646)
 42:   1306.00   0.012214   61.73  0.002919  ( 0.048202 -0.019137 -0.015129)
 43:   1321.95   0.019992  101.03  0.004719  ( 0.063562 -0.025369  0.005967)
 44:   1347.79   0.002228   11.26  0.000516  ( 0.022529  0.002088  0.001961)
 45:   1396.41   0.010517   53.15  0.002350  (-0.027166  0.040122  0.001622)
 46:   1409.70   0.000712    3.60  0.000158  ( 0.002495  0.008765  0.008629)
 47:   1429.52   0.000386    1.95  0.000084  ( 0.001450  0.008550  0.003019)
 48:   1468.84   0.039567  199.96  0.008406  ( 0.077028 -0.047167 -0.015758)
 49:   1503.85   0.031235  157.85  0.006482  ( 0.078473 -0.002022 -0.017870)
 50:   1570.29   0.030936  156.34  0.006148  (-0.063146 -0.042148  0.019595)
 51:   1593.48   0.000522    2.64  0.000102  ( 0.007727  0.005290 -0.003805)
 52:   1612.35   0.002753   13.91  0.000533  (-0.015617 -0.016993  0.000388)
 53:   2887.64   0.034130  172.48  0.003688  (-0.031460 -0.050062  0.013874)
 54:   2898.64   0.015613   78.90  0.001681  ( 0.021384  0.004362 -0.034708)
 55:   2927.28   0.037099  187.48  0.003955  (-0.055658 -0.024376  0.016216)
 56:   2942.40   0.009659   48.81  0.001024  ( 0.008229  0.029559 -0.009110)
 57:   2981.50   0.010929   55.23  0.001144  ( 0.022700 -0.023436 -0.008912)
 58:   3036.22   0.009729   49.17  0.001000  ( 0.025348 -0.017681 -0.006693)
 59:   3054.35   0.010943   55.30  0.001118  (-0.011398 -0.030547  0.007415)
 60:   3079.63   0.011413   57.68  0.001157  ( 0.009807  0.032389 -0.003354)
 61:   3337.68   0.002338   11.82  0.000219  (-0.012477  0.007210 -0.003310)
 62:   3405.96   0.000855    4.32  0.000078  (-0.005957 -0.005547 -0.003472)

* The epsilon (eps) is given for a Dirac delta lineshape.
** The dipole moment derivative (T) already includes vibrational overlap.

The first frequency considered to be a vibration is 6
The total number of vibrations considered is 57


--------------------------
THERMOCHEMISTRY AT 298.15K
--------------------------

Temperature         ... 298.15 K
Pressure            ... 1.00 atm
Total Mass          ... 152.17 AMU

Throughout the following assumptions are being made:
  (1) The electronic state is orbitally nondegenerate
  (2) There are no thermally accessible electronically excited states
  (3) Hindered rotations indicated by low frequency modes are not
      treated as such but are treated as vibrations and this may
      cause some error
  (4) All equations used are the standard statistical mechanics
      equations for an ideal gas
  (5) All vibrations are strictly harmonic

freq.      41.24  E(vib)   ...       0.54 
freq.      72.23  E(vib)   ...       0.50 
freq.     140.20  E(vib)   ...       0.41 
freq.     182.00  E(vib)   ...       0.37 
freq.     237.20  E(vib)   ...       0.32 
freq.     291.51  E(vib)   ...       0.27 
freq.     310.32  E(vib)   ...       0.26 
freq.     327.36  E(vib)   ...       0.24 
freq.     355.00  E(vib)   ...       0.22 
freq.     416.18  E(vib)   ...       0.18 
freq.     421.55  E(vib)   ...       0.18 
freq.     473.97  E(vib)   ...       0.15 
freq.     507.91  E(vib)   ...       0.14 
freq.     597.62  E(vib)   ...       0.10 
freq.     613.27  E(vib)   ...       0.10 
freq.     699.27  E(vib)   ...       0.07 
freq.     703.22  E(vib)   ...       0.07 
freq.     772.89  E(vib)   ...       0.05 
freq.     787.11  E(vib)   ...       0.05 
freq.     799.40  E(vib)   ...       0.05 
freq.     805.91  E(vib)   ...       0.05 
freq.     838.33  E(vib)   ...       0.04 
freq.     857.88  E(vib)   ...       0.04 
freq.     877.87  E(vib)   ...       0.04 
freq.     910.93  E(vib)   ...       0.03 
freq.     942.30  E(vib)   ...       0.03 
freq.     984.43  E(vib)   ...       0.02 
freq.    1053.47  E(vib)   ...       0.02 
freq.    1091.06  E(vib)   ...       0.02 
freq.    1111.03  E(vib)   ...       0.01 
freq.    1129.49  E(vib)   ...       0.01 
freq.    1182.51  E(vib)   ...       0.01 
freq.    1196.98  E(vib)   ...       0.01 
freq.    1232.88  E(vib)   ...       0.01 
freq.    1277.32  E(vib)   ...       0.01 
freq.    1297.53  E(vib)   ...       0.01 
freq.    1306.00  E(vib)   ...       0.01 
freq.    1321.95  E(vib)   ...       0.01 
freq.    1347.79  E(vib)   ...       0.01 
freq.    1396.41  E(vib)   ...       0.00 
freq.    1409.70  E(vib)   ...       0.00 
freq.    1429.52  E(vib)   ...       0.00 
freq.    1468.84  E(vib)   ...       0.00 
freq.    1503.85  E(vib)   ...       0.00 
freq.    1570.29  E(vib)   ...       0.00 
freq.    1593.48  E(vib)   ...       0.00 
freq.    1612.35  E(vib)   ...       0.00 
freq.    2887.64  E(vib)   ...       0.00 
freq.    2898.64  E(vib)   ...       0.00 
freq.    2927.28  E(vib)   ...       0.00 
freq.    2942.40  E(vib)   ...       0.00 
freq.    2981.50  E(vib)   ...       0.00 
freq.    3036.22  E(vib)   ...       0.00 
freq.    3054.35  E(vib)   ...       0.00 
freq.    3079.63  E(vib)   ...       0.00 
freq.    3337.68  E(vib)   ...       0.00 
freq.    3405.96  E(vib)   ...       0.00 

------------
INNER ENERGY
------------

The inner energy is: U= E(el) + E(ZPE) + E(vib) + E(rot) + E(trans)
    E(el)   - is the total energy from the electronic structure calculation
              = E(kin-el) + E(nuc-el) + E(el-el) + E(nuc-nuc)
    E(ZPE)  - the the zero temperature vibrational energy from the frequency calculation
    E(vib)  - the the finite temperature correction to E(ZPE) due to population
              of excited vibrational states
    E(rot)  - is the rotational thermal energy
    E(trans)- is the translational thermal energy

Summary of contributions to the inner energy U:
Electronic energy                ...   -515.72688399 Eh
Zero point energy                ...      0.16414382 Eh     103.00 kcal/mol
Thermal vibrational correction   ...      0.00746069 Eh       4.68 kcal/mol
Thermal rotational correction    ...      0.00141627 Eh       0.89 kcal/mol
Thermal translational correction ...      0.00141627 Eh       0.89 kcal/mol
-----------------------------------------------------------------------
Total thermal energy                   -515.55244694 Eh


Summary of corrections to the electronic energy:
(perhaps to be used in another calculation)
Total thermal correction                  0.01029323 Eh       6.46 kcal/mol
Non-thermal (ZPE) correction              0.16414382 Eh     103.00 kcal/mol
-----------------------------------------------------------------------
Total correction                          0.17443705 Eh     109.46 kcal/mol


--------
ENTHALPY
--------

The enthalpy is H = U + kB*T
                kB is Boltzmann's constant
Total free energy                 ...   -515.55244694 Eh 
Thermal Enthalpy correction       ...      0.00094421 Eh       0.59 kcal/mol
-----------------------------------------------------------------------
Total Enthalpy                    ...   -515.55150273 Eh


Note: Only C1 symmetry has been detected, increase convergence thresholds 
      if your molecule has a higher symmetry. Symmetry factor of 1.0 is   
      used for the rotational entropy correction. 
 

Note: Rotational entropy computed according to Herzberg 
Infrared and Raman Spectra, Chapter V,1, Van Nostrand Reinhold, 1945 
Point Group:  C1, Symmetry Number:   1  
Rotational constants in cm-1:     0.075245     0.021722     0.019195 

Vibrational entropy computed according to the QRRHO of S. Grimme
Chem.Eur.J. 2012 18 9955


-------
ENTROPY
-------

The entropy contributions are T*S = T*(S(el)+S(vib)+S(rot)+S(trans))
     S(el)   - electronic entropy
     S(vib)  - vibrational entropy
     S(rot)  - rotational entropy
     S(trans)- translational entropy
The entropies will be listed as multiplied by the temperature to get
units of energy

Electronic entropy                ...      0.00000000 Eh      0.00 kcal/mol
Vibrational entropy               ...      0.01247473 Eh      7.83 kcal/mol
Rotational entropy                ...      0.01440617 Eh      9.04 kcal/mol
Translational entropy             ...      0.01946586 Eh     12.21 kcal/mol
-----------------------------------------------------------------------
Final entropy term                ...      0.04634676 Eh     29.08 kcal/mol

In case the symmetry of your molecule has not been determined correctly
or in case you have a reason to use a different symmetry number we print 
out the resulting rotational entropy values for sn=1,12 :
 --------------------------------------------------------
|  sn= 1 | S(rot)=       0.01440617 Eh      9.04 kcal/mol|
|  sn= 2 | S(rot)=       0.01375171 Eh      8.63 kcal/mol|
|  sn= 3 | S(rot)=       0.01336888 Eh      8.39 kcal/mol|
|  sn= 4 | S(rot)=       0.01309726 Eh      8.22 kcal/mol|
|  sn= 5 | S(rot)=       0.01288657 Eh      8.09 kcal/mol|
|  sn= 6 | S(rot)=       0.01271443 Eh      7.98 kcal/mol|
|  sn= 7 | S(rot)=       0.01256888 Eh      7.89 kcal/mol|
|  sn= 8 | S(rot)=       0.01244280 Eh      7.81 kcal/mol|
|  sn= 9 | S(rot)=       0.01233159 Eh      7.74 kcal/mol|
|  sn=10 | S(rot)=       0.01223211 Eh      7.68 kcal/mol|
|  sn=11 | S(rot)=       0.01214212 Eh      7.62 kcal/mol|
|  sn=12 | S(rot)=       0.01205997 Eh      7.57 kcal/mol|
 --------------------------------------------------------


-------------------
GIBBS FREE ENERGY
-------------------

The Gibbs free energy is G = H - T*S

Total enthalpy                    ...   -515.55150273 Eh 
Total entropy correction          ...     -0.04634676 Eh    -29.08 kcal/mol
-----------------------------------------------------------------------
Final Gibbs free energy         ...   -515.59784949 Eh

For completeness - the Gibbs free energy minus the electronic energy
G-E(el)                           ...      0.12903450 Eh     80.97 kcal/mol



Timings for individual modules:

Sum of individual times         ...     1634.744 sec (=  27.246 min)
GTO integral calculation        ...        2.076 sec (=   0.035 min)   0.1 %
SCF iterations                  ...       19.450 sec (=   0.324 min)   1.2 %
SCF Gradient evaluation         ...        8.236 sec (=   0.137 min)   0.5 %
Geometry relaxation             ...        0.060 sec (=   0.001 min)   0.0 %
Numerical frequency calculation ...     1604.923 sec (=  26.749 min)  98.2 %
                             ****ORCA TERMINATED NORMALLY****
TOTAL RUN TIME: 0 days 0 hours 27 minutes 7 seconds 750 msec
