
                                 *****************
                                 * O   R   C   A *
                                 *****************

                                            #,                                       
                                            ###                                      
                                            ####                                     
                                            #####                                    
                                            ######                                   
                                           ########,                                 
                                     ,,################,,,,,                         
                               ,,#################################,,                 
                          ,,##########################################,,             
                       ,#########################################, ''#####,          
                    ,#############################################,,   '####,        
                  ,##################################################,,,,####,       
                ,###########''''           ''''###############################       
              ,#####''   ,,,,##########,,,,          '''####'''          '####       
            ,##' ,,,,###########################,,,                        '##       
           ' ,,###''''                  '''############,,,                           
         ,,##''                                '''############,,,,        ,,,,,,###''
      ,#''                                            '''#######################'''  
     '                                                          ''''####''''         
             ,#######,   #######,   ,#######,      ##                                
            ,#'     '#,  ##    ##  ,#'     '#,    #''#        ######   ,####,        
            ##       ##  ##   ,#'  ##            #'  '#       #        #'  '#        
            ##       ##  #######   ##           ,######,      #####,   #    #        
            '#,     ,#'  ##    ##  '#,     ,#' ,#      #,         ##   #,  ,#        
             '#######'   ##     ##  '#######'  #'      '#     #####' # '####'        



                  #######################################################
                  #                        -***-                        #
                  #          Department of theory and spectroscopy      #
                  #    Directorship and core code : Frank Neese         #
                  #        Max Planck Institute fuer Kohlenforschung    #
                  #                Kaiser Wilhelm Platz 1               #
                  #                 D-45470 Muelheim/Ruhr               #
                  #                      Germany                        #
                  #                                                     #
                  #                  All rights reserved                #
                  #                        -***-                        #
                  #######################################################


                         Program Version 5.0.2 -  RELEASE  -


 With contributions from (in alphabetic order):
   Daniel Aravena         : Magnetic Suceptibility
   Michael Atanasov       : Ab Initio Ligand Field Theory (pilot matlab implementation)
   Alexander A. Auer      : GIAO ZORA, VPT2 properties, NMR spectrum
   Ute Becker             : Parallelization
   Giovanni Bistoni       : ED, misc. LED, open-shell LED, HFLD
   Martin Brehm           : Molecular dynamics
   Dmytro Bykov           : SCF Hessian
   Vijay G. Chilkuri      : MRCI spin determinant printing, contributions to CSF-ICE
   Dipayan Datta          : RHF DLPNO-CCSD density
   Achintya Kumar Dutta   : EOM-CC, STEOM-CC
   Dmitry Ganyushin       : Spin-Orbit,Spin-Spin,Magnetic field MRCI
   Miquel Garcia          : C-PCM and meta-GGA Hessian, CC/C-PCM, Gaussian charge scheme
   Yang Guo               : DLPNO-NEVPT2, F12-NEVPT2, CIM, IAO-localization
   Andreas Hansen         : Spin unrestricted coupled pair/coupled cluster methods
   Benjamin Helmich-Paris : MC-RPA, TRAH-SCF, COSX integrals
   Lee Huntington         : MR-EOM, pCC
   Robert Izsak           : Overlap fitted RIJCOSX, COSX-SCS-MP3, EOM
   Marcus Kettner         : VPT2
   Christian Kollmar      : KDIIS, OOCD, Brueckner-CCSD(T), CCSD density, CASPT2, CASPT2-K
   Simone Kossmann        : Meta GGA functionals, TD-DFT gradient, OOMP2, MP2 Hessian
   Martin Krupicka        : Initial AUTO-CI
   Lucas Lang             : DCDCAS
   Marvin Lechner         : AUTO-CI (C++ implementation), FIC-MRCC
   Dagmar Lenk            : GEPOL surface, SMD
   Dimitrios Liakos       : Extrapolation schemes; Compound Job, initial MDCI parallelization
   Dimitrios Manganas     : Further ROCIS development; embedding schemes
   Dimitrios Pantazis     : SARC Basis sets
   Anastasios Papadopoulos: AUTO-CI, single reference methods and gradients
   Taras Petrenko         : DFT Hessian,TD-DFT gradient, ASA, ECA, R-Raman, ABS, FL, XAS/XES, NRVS
   Peter Pinski           : DLPNO-MP2, DLPNO-MP2 Gradient
   Christoph Reimann      : Effective Core Potentials
   Marius Retegan         : Local ZFS, SOC
   Christoph Riplinger    : Optimizer, TS searches, QM/MM, DLPNO-CCSD(T), (RO)-DLPNO pert. Triples
   Tobias Risthaus        : Range-separated hybrids, TD-DFT gradient, RPA, STAB
   Michael Roemelt        : Original ROCIS implementation
   Masaaki Saitow         : Open-shell DLPNO-CCSD energy and density
   Barbara Sandhoefer     : DKH picture change effects
   Avijit Sen             : IP-ROCIS
   Kantharuban Sivalingam : CASSCF convergence, NEVPT2, FIC-MRCI
   Bernardo de Souza      : ESD, SOC TD-DFT
   Georgi Stoychev        : AutoAux, RI-MP2 NMR, DLPNO-MP2 response
   Willem Van den Heuvel  : Paramagnetic NMR
   Boris Wezisla          : Elementary symmetry handling
   Frank Wennmohs         : Technical directorship


 We gratefully acknowledge several colleagues who have allowed us to
 interface, adapt or use parts of their codes:
   Stefan Grimme, W. Hujo, H. Kruse, P. Pracht,  : VdW corrections, initial TS optimization,
                  C. Bannwarth, S. Ehlert          DFT functionals, gCP, sTDA/sTD-DF
   Ed Valeev, F. Pavosevic, A. Kumar             : LibInt (2-el integral package), F12 methods
   Garnet Chan, S. Sharma, J. Yang, R. Olivares  : DMRG
   Ulf Ekstrom                                   : XCFun DFT Library
   Mihaly Kallay                                 : mrcc  (arbitrary order and MRCC methods)
   Jiri Pittner, Ondrej Demel                    : Mk-CCSD
   Frank Weinhold                                : gennbo (NPA and NBO analysis)
   Christopher J. Cramer and Donald G. Truhlar   : smd solvation model
   Lars Goerigk                                  : TD-DFT with DH, B97 family of functionals
   V. Asgeirsson, H. Jonsson                     : NEB implementation
   FAccTs GmbH                                   : IRC, NEB, NEB-TS, DLPNO-Multilevel, CI-OPT
                                                   MM, QMMM, 2- and 3-layer-ONIOM, Crystal-QMMM,
                                                   LR-CPCM, SF, NACMEs, symmetry and pop. for TD-DFT,
                                                   nearIR, NL-DFT gradient (VV10), updates on ESD,
                                                   ML-optimized integration grids
   S Lehtola, MJT Oliveira, MAL Marques          : LibXC Library
   Liviu Ungur et al                             : ANISO software


 Your calculation uses the libint2 library for the computation of 2-el integrals
 For citations please refer to: http://libint.valeyev.net

 Your ORCA version has been built with support for libXC version: 5.1.0
 For citations please refer to: https://tddft.org/programs/libxc/

 This ORCA versions uses:
   CBLAS   interface :  Fast vector & matrix operations
   LAPACKE interface :  Fast linear algebra routines
   SCALAPACK package :  Parallel linear algebra routines
   Shared memory     :  Shared parallel matrices
   BLAS/LAPACK       :  OpenBLAS 0.3.15  USE64BITINT DYNAMIC_ARCH NO_AFFINITY Haswell SINGLE_THREADED
        Core in use  :  Haswell
   Copyright (c) 2011-2014, The OpenBLAS Project


XCFun DFT library Copyright 2009-2010 Ulf Ekstrom and contributors.
See http://admol.org/xcfun for more information.
This is free software; see the source code for copying conditions.
There is ABSOLUTELY NO WARRANTY; not even for MERCHANTABILITY or FITNESS FOR A PARTICULAR PURPOSE.
For details see the documentation.
Scientific users of this library should cite U. Ekstrom, L. Visscher, R. Bast, A. J. Thorvaldsen and K. Ruud;
J.Chem.Theor.Comp. 2010, DOI: 10.1021/ct100117s
XCFun Version 0.99 

================================================================================

----- Orbital basis set information -----
Your calculation utilizes the basis: def2-TZVP
   F. Weigend and R. Ahlrichs, Phys. Chem. Chem. Phys. 7, 3297 (2005).

----- AuxJ basis set information -----
Your calculation utilizes the auxiliary basis: def2/J
   F. Weigend, Phys. Chem. Chem. Phys. 8, 1057 (2006).

================================================================================
                                        WARNINGS
                       Please study these warnings very carefully!
================================================================================

WARNING: Old DensityContainer found on disk!
         Will remove this file - 
         If you want to keep old densities, please start your calculation with a different basename. 

INFO   : Checking CIS options ...

WARNING: Minnesota functionals are quite sensitive to the integration grid.
         see SE Wheeler, KN Houk, JCTC 2010, 6, 395,
             N Mardirossian, M Head-Gordon, JCTC 2016, 12, 4303.
         DEFGRID3 seems to be a minimum grid for reliable results with these functionals!
  ===> : Please increase the integration grid!


WARNING: CIS/ROCIS methods need fully converged wavefunctions
  ===> : Setting SCFConvForced true
         You can overwrite this default with %scf ConvForced false 


INFO   : the flag for use of the SHARK integral package has been found!

================================================================================
                                       INPUT FILE
================================================================================
NAME = ex.inp
|  1> ! M062X TightSCF def2-TZVP slowconv PModel cpcm(water) 
|  2> 
|  3> %tddft
|  4>  nroots 12
|  5>  maxdim 60
|  6>  triplets false
|  7> end
|  8> 
|  9> %output
| 10> Print[ P_Basis ] 2
| 11> Print[ P_MOs ] 1
| 12> end
| 13> 
| 14> %pal nprocs=16 end
| 15> %base "cu8"
| 16> *xyz 0 1
| 17>   Cu     0.000000000000    1.843511000000    0.587365000000
| 18>   Cu    -1.459876000000   -0.000000000000    2.139021000000
| 19>   Cu     1.854191000000    0.000000000000   -0.594171000000
| 20>   Cu    -0.000000000000    1.460941000000   -2.132216000000
| 21>   Cu     0.000000000000   -1.843511000000    0.587365000000
| 22>   Cu    -1.854191000000    0.000000000000   -0.594171000000
| 23>   Cu    -0.000000000000   -1.460941000000   -2.132216000000
| 24>   Cu     1.459876000000    0.000000000000    2.139021000000
| 25> *
| 26> 
| 27>                          ****END OF INPUT****
================================================================================

                       ****************************
                       * Single Point Calculation *
                       ****************************

---------------------------------
CARTESIAN COORDINATES (ANGSTROEM)
---------------------------------
  Cu     0.000000    1.843511    0.587365
  Cu    -1.459876   -0.000000    2.139021
  Cu     1.854191    0.000000   -0.594171
  Cu    -0.000000    1.460941   -2.132216
  Cu     0.000000   -1.843511    0.587365
  Cu    -1.854191    0.000000   -0.594171
  Cu    -0.000000   -1.460941   -2.132216
  Cu     1.459876    0.000000    2.139021

----------------------------
CARTESIAN COORDINATES (A.U.)
----------------------------
  NO LB      ZA    FRAG     MASS         X           Y           Z
   0 Cu   29.0000    0    63.550    0.000000    3.483731    1.109959
   1 Cu   29.0000    0    63.550   -2.758766   -0.000000    4.042164
   2 Cu   29.0000    0    63.550    3.503913    0.000000   -1.122820
   3 Cu   29.0000    0    63.550   -0.000000    2.760778   -4.029304
   4 Cu   29.0000    0    63.550    0.000000   -3.483731    1.109959
   5 Cu   29.0000    0    63.550   -3.503913    0.000000   -1.122820
   6 Cu   29.0000    0    63.550   -0.000000   -2.760778   -4.029304
   7 Cu   29.0000    0    63.550    2.758766    0.000000    4.042164

--------------------------------
INTERNAL COORDINATES (ANGSTROEM)
--------------------------------
 Cu     0   0   0     0.000000000000     0.00000000     0.00000000
 Cu     1   0   0     2.817340427572     0.00000000     0.00000000
 Cu     1   2   0     2.869248053218    98.11931277     0.00000000
 Cu     1   2   3     2.746357700749   117.01550015    60.58717085
 Cu     2   1   3     2.817340427572    81.73991881   349.02430793
 Cu     2   1   3     2.761489240987    61.89311820   286.55127286
 Cu     5   2   1     2.746357700749   117.01550015   310.38852122
 Cu     3   1   2     2.761489240987    60.01000890   309.76983437

---------------------------
INTERNAL COORDINATES (A.U.)
---------------------------
 Cu     0   0   0     0.000000000000     0.00000000     0.00000000
 Cu     1   0   0     5.324001834136     0.00000000     0.00000000
 Cu     1   2   0     5.422093030870    98.11931277     0.00000000
 Cu     1   2   3     5.189863920200   117.01550015    60.58717085
 Cu     2   1   3     5.324001834136    81.73991881   349.02430793
 Cu     2   1   3     5.218458387236    61.89311820   286.55127286
 Cu     5   2   1     5.189863920200   117.01550015   310.38852122
 Cu     3   1   2     5.218458387236    60.01000890   309.76983437

---------------------
BASIS SET INFORMATION
---------------------
There are 1 groups of distinct atoms

 Group   1 Type Cu  : 17s11p7d1f contracted to 6s4p4d1f pattern {842111/6311/4111/1}

Atom   0Cu   basis set group =>   1
Atom   1Cu   basis set group =>   1
Atom   2Cu   basis set group =>   1
Atom   3Cu   basis set group =>   1
Atom   4Cu   basis set group =>   1
Atom   5Cu   basis set group =>   1
Atom   6Cu   basis set group =>   1
Atom   7Cu   basis set group =>   1

-------------------------
BASIS SET IN INPUT FORMAT
-------------------------

 # Basis set for element : Cu
 NewGTO Cu
 S 8 
   1  377518.7992300000      0.0002387916
   2   56589.9843110000      0.0018515678
   3   12878.7117060000      0.0096297932
   4    3645.3752143000      0.0391615178
   5    1187.0072945000      0.1276025095
   6     426.4642190200      0.3034008838
   7     165.7066016400      0.4347519283
   8      65.5989427070      0.2293079504
 S 4 
   1     414.4126581100     -0.0249866525
   2     128.3205603900     -0.1186119709
   3      20.6220897500      0.5598271484
   4       8.7821226045      0.5288643080
 S 2 
   1      13.7413720060     -0.3699327832
   2       2.2431246833      1.1676087386
 S 1 
   1       0.8937054908      1.0000000000
 S 1 
   1       0.1083669953      1.0000000000
 S 1 
   1       0.0388061781      1.0000000000
 P 6 
   1    2034.7596692000      0.0026776186
   2     481.9046810600      0.0217785896
   3     154.6748296300      0.1026336485
   4      57.7405769690      0.2966548980
   5      23.0990528110      0.4791122399
   6       9.3882478591      0.2770928296
 P 3 
   1      37.5961712100     -0.0207301505
   2       5.1240690810      0.3927002052
   3       2.0119996085      0.6706714235
 P 1 
   1       0.7386068600      1.0000000000
 D 4 
   1      74.1294606370      0.0222258533
   2      21.3598425870      0.1340497188
   3       7.4995240537      0.3966245361
   4       2.7601394169      0.6247541952
 D 1 
   1       0.9536206124      1.0000000000
 D 1 
   1       0.2842086252      1.0000000000
 P 1 
   1       0.1550650000      1.0000000000
 D 1 
   1       0.0850000000      1.0000000000
 F 1 
   1       2.2330000000      1.0000000000
  end;

---------------------------------
AUXILIARY/J BASIS SET INFORMATION
---------------------------------
There are 1 groups of distinct atoms

 Group   1 Type Cu  : 19s5p5d3f3g contracted to 8s5p4d3f3g pattern {121111111/11111/2111/111/111}

Atom   0Cu   basis set group =>   1
Atom   1Cu   basis set group =>   1
Atom   2Cu   basis set group =>   1
Atom   3Cu   basis set group =>   1
Atom   4Cu   basis set group =>   1
Atom   5Cu   basis set group =>   1
Atom   6Cu   basis set group =>   1
Atom   7Cu   basis set group =>   1

-------------------------------------
AUXILIARY/J BASIS SET IN INPUT FORMAT
-------------------------------------

 # Auxiliary/J basis set for element : Cu
 NewAuxJGTO Cu
 S 12 
   1   22760.1575320000      0.0282764819
   2    7272.8802874000      0.0691320820
   3    2725.0817134000      0.1660481474
   4    1480.3337422000      0.1462232042
   5     870.7845298000      0.2312796482
   6     533.0245964000      0.1980761869
   7     313.5438715000      0.1178844884
   8     112.8979167000     -0.0569562562
   9      66.4105374000      0.1110331733
  10      39.0650209000      0.2298430798
  11      22.9794234000      0.1324785707
  12      13.5173075000     -0.0781371994
 S 1 
   1       4.3193796000      1.0000000000
 S 1 
   1       2.5408114000      1.0000000000
 S 1 
   1       1.5552814000      1.0000000000
 S 1 
   1       0.9148714000      1.0000000000
 S 1 
   1       0.3294183000      1.0000000000
 S 1 
   1       0.1139855000      1.0000000000
 S 1 
   1       0.0670503000     -1.0000000000
 P 1 
   1      10.4327236000      1.0000000000
 P 1 
   1       4.0251086000     -1.0000000000
 P 1 
   1       1.5534382000      1.0000000000
 P 1 
   1       0.5996423000      1.0000000000
 P 1 
   1       0.2314823000     -1.0000000000
 D 2 
   1      19.6140080000     -1.0547292095
   2       7.2975860000      1.3124309240
 D 1 
   1       2.7500946000     -1.0000000000
 D 1 
   1       1.0444408000     -1.0000000000
 D 1 
   1       0.3976934000      1.0000000000
 F 1 
   1       5.8169042000     -1.0000000000
 F 1 
   1       0.7156542000      1.0000000000
 F 1 
   1       0.0892019000     -1.0000000000
 G 1 
   1      15.3794722000      1.0000000000
 G 1 
   1       4.2631148000      1.0000000000
 G 1 
   1       1.1926492000     -1.0000000000
  end;



           ************************************************************
           *        Program running with 16 parallel MPI-processes    *
           *              working on a common directory               *
           ************************************************************
------------------------------------------------------------------------------
                           ORCA GTO INTEGRAL CALCULATION
                           -- RI-GTO INTEGRALS CHOSEN --
------------------------------------------------------------------------------
------------------------------------------------------------------------------
                   ___                                                        
                  /   \      - P O W E R E D   B Y -                         
                 /     \                                                     
                 |  |  |   _    _      __       _____    __    __             
                 |  |  |  | |  | |    /  \     |  _  \  |  |  /  |          
                  \  \/   | |  | |   /    \    | | | |  |  | /  /          
                 / \  \   | |__| |  /  /\  \   | |_| |  |  |/  /          
                |  |  |   |  __  | /  /__\  \  |    /   |      \           
                |  |  |   | |  | | |   __   |  |    \   |  |\   \          
                \     /   | |  | | |  |  |  |  | |\  \  |  | \   \       
                 \___/    |_|  |_| |__|  |__|  |_| \__\ |__|  \__/        
                                                                              
                      - O R C A' S   B I G   F R I E N D -                    
                                      &                                       
                       - I N T E G R A L  F E E D E R -                       
                                                                              
 v1 FN, 2020, v2 2021                                                         
------------------------------------------------------------------------------


Reading SHARK input file cu8.SHARKINP.tmp ... ok
----------------------
SHARK INTEGRAL PACKAGE
----------------------

Number of atoms                             ...      8
Number of basis functions                   ...    360
Number of shells                            ...    120
Maximum angular momentum                    ...      3
Integral batch strategy                     ... SHARK/LIBINT Hybrid
RI-J (if used) integral strategy            ... SPLIT-RIJ (Revised 2003 algorithm where possible)
Printlevel                                  ...      1
Contraction scheme used                     ... SEGMENTED contraction
Coulomb Range Separation                    ... NOT USED
Exchange Range Separation                   ... NOT USED
Finite Nucleus Model                        ... NOT USED
Auxiliary Coulomb fitting basis             ... AVAILABLE
   # of basis functions in Aux-J            ...    728
   # of shells in Aux-J                     ...    184
   Maximum angular momentum in Aux-J        ...      4
Auxiliary J/K fitting basis                 ... NOT available
Auxiliary Correlation fitting basis         ... NOT available
Auxiliary 'external' fitting basis          ... NOT available
Integral threshold                          ...     2.500000e-11
Primitive cut-off                           ...     2.500000e-12
Primitive pair pre-selection threshold      ...     2.500000e-12

Calculating pre-screening integrals         ... done (  0.1 sec) Dimension = 120
Organizing shell pair data                  ... done (  0.2 sec)
Shell pair information
Total number of shell pairs                 ...      7260
Shell pairs after pre-screening             ...      5510
Total number of primitive shell pairs       ...     42088
Primitive shell pairs kept                  ...     18292
          la=0 lb=0:    828 shell pairs
          la=1 lb=0:   1100 shell pairs
          la=1 lb=1:    392 shell pairs
          la=2 lb=0:   1272 shell pairs
          la=2 lb=1:    856 shell pairs
          la=2 lb=2:    476 shell pairs
          la=3 lb=0:    204 shell pairs
          la=3 lb=1:    164 shell pairs
          la=3 lb=2:    192 shell pairs
          la=3 lb=3:     26 shell pairs

Calculating one electron integrals          ... done (  0.1 sec)
Calculating RI/J V-Matrix + Cholesky decomp.... done (  0.0 sec)
Calculating Nuclear repulsion               ... done (  0.0 sec) ENN=   3866.363804058294 Eh

SHARK setup successfully completed in   0.7 seconds

Maximum memory used throughout the entire GTOINT-calculation: 24.0 MB


           ************************************************************
           *        Program running with 16 parallel MPI-processes    *
           *              working on a common directory               *
           ************************************************************
-------------------------------------------------------------------------------
                                 ORCA SCF
-------------------------------------------------------------------------------

------------
SCF SETTINGS
------------
Hamiltonian:
 Density Functional     Method          .... DFT(GTOs)
 Exchange Functional    Exchange        .... M062X
 Correlation Functional Correlation     .... M062X
 Gradients option       PostSCFGGA      .... off
 Hybrid DFT is turned on
   Fraction HF Exchange ScalHFX         ....  0.540000
   Scaling of DF-GGA-X  ScalDFX         ....  0.460000
   Scaling of DF-GGA-C  ScalDFC         ....  1.000000
   Scaling of DF-LDA-C  ScalLDAC        ....  1.000000
   Perturbative correction              ....  0.000000
   Density functional embedding theory  .... OFF
 RI-approximation to the Coulomb term is turned on
   Number of AuxJ basis functions       .... 728
   RIJ-COSX (HFX calculated with COS-X)).... on


General Settings:
 Integral files         IntName         .... cu8
 Hartree-Fock type      HFTyp           .... RHF
 Total Charge           Charge          ....    0
 Multiplicity           Mult            ....    1
 Number of Electrons    NEL             ....  232
 Basis Dimension        Dim             ....  360
 Nuclear Repulsion      ENuc            ....   3866.3638040583 Eh

Convergence Acceleration:
 DIIS                   CNVDIIS         .... on
   Start iteration      DIISMaxIt       ....     0
   Startup error        DIISStart       ....  0.200000
   # of expansion vecs  DIISMaxEq       ....     5
   Bias factor          DIISBfac        ....   1.050
   Max. coefficient     DIISMaxC        ....  10.000
 Trust-Rad. Augm. Hess. CNVTRAH         .... auto
   Auto Start mean grad. ratio tolernc. ....  1.125000
   Auto Start start iteration           ....    20
   Auto Start num. interpolation iter.  ....    10
   Max. Number of Micro iterations      ....    16
   Max. Number of Macro iterations      .... Maxiter - #DIIS iter
   Number of Davidson start vectors     ....     2
   Converg. threshold I  (grad. norm)   ....   1.000e-05
   Converg. threshold II (energy diff.) ....   1.000e-08
   Grad. Scal. Fac. for Micro threshold ....   0.100
   Minimum threshold for Micro iter.    ....   0.010
   NR start threshold (gradient norm)   ....   0.001
   Initial trust radius                 ....   0.400
   Minimum AH scaling param. (alpha)    ....   1.000
   Maximum AH scaling param. (alpha)    .... 1000.000
   Orbital update algorithm             .... Taylor
   White noise on init. David. guess    .... on
   Maximum white noise                  ....   0.010
   Quad. conv. algorithm                .... NR
 SOSCF                  CNVSOSCF        .... off
 Level Shifting         CNVShift        .... on
   Level shift para.    LevelShift      ....    0.2500
   Turn off err/grad.   ShiftErr        ....    0.0000
 Zerner damping         CNVZerner       .... off
 Static damping         CNVDamp         .... on
   Fraction old density DampFac         ....    0.8500
   Max. Damping (<1)    DampMax         ....    0.9800
   Min. Damping (>=0)   DampMin         ....    0.0000
   Turn off err/grad.   DampErr         ....    0.0300
 Fernandez-Rico         CNVRico         .... off

SCF Procedure:
 Maximum # iterations   MaxIter         ....   125
 SCF integral mode      SCFMode         .... Direct
   Integral package                     .... SHARK and LIBINT hybrid scheme
 Reset frequency        DirectResetFreq ....    20
 Integral Threshold     Thresh          ....  2.500e-11 Eh
 Primitive CutOff       TCut            ....  2.500e-12 Eh

Convergence Tolerance:
 Convergence Check Mode ConvCheckMode   .... Total+1el-Energy
 Convergence forced     ConvForced      .... 1
 Energy Change          TolE            ....  1.000e-08 Eh
 1-El. energy change                    ....  1.000e-05 Eh
 DIIS Error             TolErr          ....  5.000e-07


Diagonalization of the overlap matrix:
Smallest eigenvalue                        ... 1.009e-02
Time for diagonalization                   ...    0.027 sec
Threshold for overlap eigenvalues          ... 1.000e-08
Number of eigenvalues below threshold      ... 0
Time for construction of square roots      ...    0.019 sec
Total time needed                          ...    0.047 sec

Time for model grid setup =    0.311 sec

------------------------------
INITIAL GUESS: MODEL POTENTIAL
------------------------------
Loading Hartree-Fock densities                     ... done
Calculating cut-offs                               ... done
Initializing the effective Hamiltonian             ... done
Setting up the integral package (SHARK)            ... done
Starting the Coulomb interaction                   ... done (   0.1 sec)
Reading the grid                                   ... done
Mapping shells                                     ... done
Starting the XC term evaluation                    ... done (   0.1 sec)
  promolecular density results
     # of electrons  =    232.000371303
     EX              =   -523.925581725
     EC              =    -10.870670157
     EX+EC           =   -534.796251883
Transforming the Hamiltonian                       ... done (   0.0 sec)
Diagonalizing the Hamiltonian                      ... done (   0.0 sec)
Back transforming the eigenvectors                 ... done (   0.0 sec)
Now organizing SCF variables                       ... done
                      ------------------
                      INITIAL GUESS DONE (   0.6 sec)
                      ------------------
-------------------
DFT GRID GENERATION
-------------------

General Integration Accuracy     IntAcc      ... 4.388
Radial Grid Type                 RadialGrid  ... OptM3 with GC (2021)
Angular Grid (max. ang.)         AngularGrid ... 4 (Lebedev-302)
Angular grid pruning method      GridPruning ... 4 (adaptive)
Weight generation scheme         WeightScheme... Becke
Basis function cutoff            BFCut       ... 1.0000e-11
Integration weight cutoff        WCut        ... 1.0000e-14
Angular grids for H and He will be reduced by one unit
Partially contracted basis set               ... off
Rotationally invariant grid construction     ... off

Total number of grid points                  ...    89598
Total number of batches                      ...     1405
Average number of points per batch           ...       63
Average number of grid points per atom       ...    11200
Time for grid setup =    1.262 sec

--------------------
COSX GRID GENERATION
--------------------

GRIDX 1
-------
General Integration Accuracy     IntAcc      ... 3.816
Radial Grid Type                 RadialGrid  ... OptM3 with GC (2021)
Angular Grid (max. ang.)         AngularGrid ... 1 (Lebedev-50)
Angular grid pruning method      GridPruning ... 4 (adaptive)
Weight generation scheme         WeightScheme... Becke
Basis function cutoff            BFCut       ... 1.0000e-11
Integration weight cutoff        WCut        ... 1.0000e-14
Angular grids for H and He will be reduced by one unit
Partially contracted basis set               ... on
Rotationally invariant grid construction     ... off

Total number of grid points                  ...     9684
Total number of batches                      ...      153
Average number of points per batch           ...       63
Average number of grid points per atom       ...     1210
UseSFitting                                  ... on

GRIDX 2
-------
General Integration Accuracy     IntAcc      ... 4.020
Radial Grid Type                 RadialGrid  ... OptM3 with GC (2021)
Angular Grid (max. ang.)         AngularGrid ... 2 (Lebedev-110)
Angular grid pruning method      GridPruning ... 4 (adaptive)
Weight generation scheme         WeightScheme... Becke
Basis function cutoff            BFCut       ... 1.0000e-11
Integration weight cutoff        WCut        ... 1.0000e-14
Angular grids for H and He will be reduced by one unit
Partially contracted basis set               ... on
Rotationally invariant grid construction     ... off

Total number of grid points                  ...    21156
Total number of batches                      ...      336
Average number of points per batch           ...       62
Average number of grid points per atom       ...     2644
UseSFitting                                  ... on

GRIDX 3
-------
General Integration Accuracy     IntAcc      ... 4.338
Radial Grid Type                 RadialGrid  ... OptM3 with GC (2021)
Angular Grid (max. ang.)         AngularGrid ... 3 (Lebedev-194)
Angular grid pruning method      GridPruning ... 4 (adaptive)
Weight generation scheme         WeightScheme... Becke
Basis function cutoff            BFCut       ... 1.0000e-11
Integration weight cutoff        WCut        ... 1.0000e-14
Angular grids for H and He will be reduced by one unit
Partially contracted basis set               ... on
Rotationally invariant grid construction     ... off

Total number of grid points                  ...    48268
Total number of batches                      ...      759
Average number of points per batch           ...       63
Average number of grid points per atom       ...     6034
UseSFitting                                  ... on

Time for X-Grid setup             =    0.651 sec


--------------------
CPCM SOLVATION MODEL
--------------------
CPCM parameters:
  Epsilon                                         ...      80.4000
  Refrac                                          ...       1.3300
  Rsolv                                           ...       1.3000
  Surface type                                    ... GAUSSIAN VDW
  Epsilon function type                           ...         CPCM
Radii:
 Radius for Cu used is    3.1747 Bohr (=   1.6800 Ang.)
Calculating surface                               ...        done! (  0.0s)
GEPOL surface points                              ...          836
GEPOL Volume                                      ...     986.3329
GEPOL Surface-area                                ...     665.6965
Calculating surface distance matrix               ...        done! (  0.0s)
Performing Cholesky decomposition & store         ...        done! (  0.1s)
Overall time for CPCM initialization              ...                 0.1s
--------------
SCF ITERATIONS
--------------
ITER       Energy         Delta-E        Max-DP      RMS-DP      [F,P]     Damp
               ***  Starting incremental Fock matrix formation  ***
  0 -13123.7318754659   0.000000000000 0.04026454  0.00052542  0.1196040 0.8500
  1 -13123.7788122938  -0.046936827932 0.04865346  0.00058098  0.0746405 0.8500
                               ***Turning on DIIS***
  2 -13123.8108400670  -0.032027773104 0.04658777  0.00053792  0.0442828 0.8500
  3 -13123.8352765563  -0.024436489337 0.04141834  0.00046867  0.0379488 0.8500
  4 -13123.8558462370  -0.020569680741 0.03644193  0.00041190  0.0326709 0.8500
  5 -13123.8732669709  -0.017420733846 0.21472772  0.00243811  0.0282516 0.0000
  6 -13123.9787842042  -0.105517233282 0.00944938  0.00021341  0.0080184 0.0000
  7 -13123.9798799260  -0.001095721802 0.00491113  0.00010054  0.0066622 0.0000
  8 -13123.9804405947  -0.000560668726 0.00404495  0.00008065  0.0017299 0.0000
  9 -13123.9806260100  -0.000185415323 0.00254521  0.00004489  0.0011312 0.0000
 10 -13123.9806806364  -0.000054626353 0.00151730  0.00002511  0.0009832 0.0000
               *** Restarting incremental Fock matrix formation ***
                                   *** Resetting DIIS ***
 11 -13123.9805937917   0.000086844639 0.00105453  0.00001610  0.0004652 0.0000
 12 -13123.9805984060  -0.000004614272 0.00061177  0.00000882  0.0007569 0.0000
 13 -13123.9806025023  -0.000004096300 0.00068204  0.00000951  0.0002254 0.0000
 14 -13123.9806047512  -0.000002248880 0.00047452  0.00000635  0.0001486 0.0000
 15 -13123.9806056646  -0.000000913391 0.00031252  0.00000409  0.0000858 0.0000
 16 -13123.9806059720  -0.000000307396 0.00020415  0.00000271  0.0000664 0.0000
 17 -13123.9806061397  -0.000000167689 0.00014173  0.00000195  0.0000313 0.0000
 18 -13123.9806062363  -0.000000096676 0.00010937  0.00000161  0.0000251 0.0000
 19 -13123.9806063084  -0.000000072099 0.00007295  0.00000116  0.0000196 0.0000
 20 -13123.9806063052   0.000000003251 0.00006603  0.00000098  0.0000185 0.0000
 21 -13123.9806063280  -0.000000022805 0.00006290  0.00000088  0.0000116 0.0000
 22 -13123.9806063003   0.000000027632 0.00004629  0.00000062  0.0000084 0.0000
 23 -13123.9806062943   0.000000006012 0.00003721  0.00000049  0.0000059 0.0000
 24 -13123.9806061974   0.000000096943 0.00002700  0.00000034  0.0000040 0.0000
 25 -13123.9806061722   0.000000025149 0.00001805  0.00000023  0.0000026 0.0000
 26 -13123.9806061891  -0.000000016826 0.00001175  0.00000015  0.0000016 0.0000
 27 -13123.9806062332  -0.000000044136 0.00000716  0.00000009  0.0000015 0.0000
 28 -13123.9806063222  -0.000000089036 0.00000438  0.00000006  0.0000010 0.0000
                            ***DIIS convergence achieved***

               *****************************************************
               *                     SUCCESS                       *
               *           SCF CONVERGED AFTER  29 CYCLES          *
               *****************************************************

Old exchange energy                            =   -283.654720573 Eh
New exchange energy                            =   -283.654749548 Eh
Exchange energy change after final integration =     -0.000028975 Eh
Total energy after final integration           = -13123.980635272 Eh
Final COS-X integration done in                =     4.302 sec

----------------
TOTAL SCF ENERGY
----------------

Total Energy       :       -13123.98063527 Eh         -357121.66880 eV

Components:
Nuclear Repulsion  :         3866.36380406 Eh          105209.10784 eV
Electronic Energy  :       -16990.34443933 Eh         -462330.77664 eV
One Electron Energy:       -26041.04560909 Eh         -708612.87621 eV
Two Electron Energy:         9050.70116976 Eh          246282.09957 eV
Max COSX asymmetry :            0.00002301 Eh               0.00063 eV
CPCM Dielectric    :           -0.01273020 Eh              -0.34641 eV

Virial components:
Potential Energy   :       -26229.80751163 Eh         -713749.34871 eV
Kinetic Energy     :        13105.82687636 Eh          356627.67991 eV
Virial Ratio       :            2.00138517


DFT components:
N(Alpha)           :      116.000010287683 electrons
N(Beta)            :      116.000010287683 electrons
N(Total)           :      232.000020575366 electrons
E(XC)              :     -254.149983870258 Eh       
DFET-embed. en.    :        0.000000000000 Eh       
CPCM Solvation Model Properties:
Surface-charge          :           -0.23645925
Charge-correction       :            0.00728005 Eh               0.19810 eV
Free-energy (cav+disp)  :  This term is not implemented in the current solvation scheme

---------------
SCF CONVERGENCE
---------------

  Last Energy change         ...    2.4513e-08  Tolerance :   1.0000e-08
  Last MAX-Density change    ...    0.0000e+00  Tolerance :   1.0000e-07
  Last RMS-Density change    ...    0.0000e+00  Tolerance :   5.0000e-09
  Last DIIS Error            ...    6.8522e-07  Tolerance :   5.0000e-07

             **** THE GBW FILE WAS UPDATED (cu8.gbw) ****
             **** DENSITY cu8.scfp WAS UPDATED ****
             **** ENERGY FILE WAS UPDATED (cu8.en.tmp) ****
             **** THE GBW FILE WAS UPDATED (cu8.gbw) ****
             **** DENSITY cu8.scfp WAS UPDATED ****
----------------
ORBITAL ENERGIES
----------------

  NO   OCC          E(Eh)            E(eV) 
   0   2.0000    -324.989630     -8843.4174 
   1   2.0000    -324.989628     -8843.4174 
   2   2.0000    -324.989563     -8843.4156 
   3   2.0000    -324.989562     -8843.4156 
   4   2.0000    -324.988512     -8843.3870 
   5   2.0000    -324.988512     -8843.3870 
   6   2.0000    -324.988439     -8843.3850 
   7   2.0000    -324.988438     -8843.3850 
   8   2.0000     -39.383857     -1071.6892 
   9   2.0000     -39.383848     -1071.6890 
  10   2.0000     -39.383811     -1071.6880 
  11   2.0000     -39.383799     -1071.6877 
  12   2.0000     -39.383321     -1071.6746 
  13   2.0000     -39.383320     -1071.6746 
  14   2.0000     -39.383216     -1071.6718 
  15   2.0000     -39.383208     -1071.6716 
  16   2.0000     -34.589361      -941.2244 
  17   2.0000     -34.589357      -941.2243 
  18   2.0000     -34.589324      -941.2234 
  19   2.0000     -34.589319      -941.2232 
  20   2.0000     -34.589270      -941.2219 
  21   2.0000     -34.589267      -941.2218 
  22   2.0000     -34.589218      -941.2205 
  23   2.0000     -34.589210      -941.2202 
  24   2.0000     -34.589169      -941.2191 
  25   2.0000     -34.589166      -941.2191 
  26   2.0000     -34.589165      -941.2190 
  27   2.0000     -34.589160      -941.2189 
  28   2.0000     -34.589157      -941.2188 
  29   2.0000     -34.589155      -941.2188 
  30   2.0000     -34.589112      -941.2176 
  31   2.0000     -34.589109      -941.2175 
  32   2.0000     -34.588551      -941.2023 
  33   2.0000     -34.588549      -941.2023 
  34   2.0000     -34.588448      -941.1995 
  35   2.0000     -34.588446      -941.1995 
  36   2.0000     -34.588396      -941.1981 
  37   2.0000     -34.588393      -941.1980 
  38   2.0000     -34.588294      -941.1953 
  39   2.0000     -34.588292      -941.1953 
  40   2.0000      -4.455532      -121.2412 
  41   2.0000      -4.455513      -121.2407 
  42   2.0000      -4.455478      -121.2397 
  43   2.0000      -4.455459      -121.2392 
  44   2.0000      -4.454476      -121.2124 
  45   2.0000      -4.454474      -121.2124 
  46   2.0000      -4.454386      -121.2100 
  47   2.0000      -4.454378      -121.2098 
  48   2.0000      -2.933297       -79.8191 
  49   2.0000      -2.933174       -79.8157 
  50   2.0000      -2.933174       -79.8157 
  51   2.0000      -2.933169       -79.8156 
  52   2.0000      -2.933074       -79.8130 
  53   2.0000      -2.933033       -79.8119 
  54   2.0000      -2.933031       -79.8118 
  55   2.0000      -2.933013       -79.8113 
  56   2.0000      -2.932979       -79.8104 
  57   2.0000      -2.932938       -79.8093 
  58   2.0000      -2.932819       -79.8061 
  59   2.0000      -2.932761       -79.8045 
  60   2.0000      -2.932196       -79.7891 
  61   2.0000      -2.932124       -79.7872 
  62   2.0000      -2.932050       -79.7851 
  63   2.0000      -2.931997       -79.7837 
  64   2.0000      -2.931883       -79.7806 
  65   2.0000      -2.931853       -79.7798 
  66   2.0000      -2.931852       -79.7797 
  67   2.0000      -2.931848       -79.7796 
  68   2.0000      -2.931568       -79.7720 
  69   2.0000      -2.931563       -79.7719 
  70   2.0000      -2.931555       -79.7717 
  71   2.0000      -2.931542       -79.7713 
  72   2.0000      -0.358093        -9.7442 
  73   2.0000      -0.356050        -9.6886 
  74   2.0000      -0.351610        -9.5678 
  75   2.0000      -0.350894        -9.5483 
  76   2.0000      -0.350884        -9.5480 
  77   2.0000      -0.350832        -9.5466 
  78   2.0000      -0.349979        -9.5234 
  79   2.0000      -0.349546        -9.5116 
  80   2.0000      -0.348328        -9.4785 
  81   2.0000      -0.348227        -9.4757 
  82   2.0000      -0.346825        -9.4376 
  83   2.0000      -0.346733        -9.4351 
  84   2.0000      -0.342422        -9.3178 
  85   2.0000      -0.341006        -9.2792 
  86   2.0000      -0.340218        -9.2578 
  87   2.0000      -0.340156        -9.2561 
  88   2.0000      -0.338341        -9.2067 
  89   2.0000      -0.334856        -9.1119 
  90   2.0000      -0.334780        -9.1098 
  91   2.0000      -0.334670        -9.1068 
  92   2.0000      -0.331945        -9.0327 
  93   2.0000      -0.331280        -9.0146 
  94   2.0000      -0.331131        -9.0105 
  95   2.0000      -0.330921        -9.0048 
  96   2.0000      -0.330816        -9.0020 
  97   2.0000      -0.329448        -8.9647 
  98   2.0000      -0.328626        -8.9424 
  99   2.0000      -0.328513        -8.9393 
 100   2.0000      -0.325056        -8.8452 
 101   2.0000      -0.324317        -8.8251 
 102   2.0000      -0.323853        -8.8125 
 103   2.0000      -0.323806        -8.8112 
 104   2.0000      -0.321439        -8.7468 
 105   2.0000      -0.321349        -8.7444 
 106   2.0000      -0.321180        -8.7397 
 107   2.0000      -0.320431        -8.7194 
 108   2.0000      -0.319707        -8.6997 
 109   2.0000      -0.319412        -8.6917 
 110   2.0000      -0.317736        -8.6460 
 111   2.0000      -0.317590        -8.6421 
 112   2.0000      -0.301779        -8.2118 
 113   2.0000      -0.199981        -5.4418 
 114   2.0000      -0.177387        -4.8269 
 115   2.0000      -0.177337        -4.8256 
 116   0.0000      -0.034158        -0.9295 
 117   0.0000      -0.030222        -0.8224 
 118   0.0000      -0.029941        -0.8147 
 119   0.0000      -0.018045        -0.4910 
 120   0.0000       0.000170         0.0046 
 121   0.0000       0.013899         0.3782 
 122   0.0000       0.049426         1.3449 
 123   0.0000       0.062797         1.7088 
 124   0.0000       0.062937         1.7126 
 125   0.0000       0.069548         1.8925 
 126   0.0000       0.080374         2.1871 
 127   0.0000       0.083791         2.2801 
 128   0.0000       0.084516         2.2998 
 129   0.0000       0.095664         2.6032 
 130   0.0000       0.137113         3.7310 
 131   0.0000       0.137499         3.7415 
 132   0.0000       0.163086         4.4378 
 133   0.0000       0.165956         4.5159 
 134   0.0000       0.165963         4.5161 
 135   0.0000       0.173463         4.7202 
 136   0.0000       0.173687         4.7263 
 137   0.0000       0.180239         4.9046 
 138   0.0000       0.181577         4.9409 
 139   0.0000       0.187811         5.1106 
 140   0.0000       0.193985         5.2786 
 141   0.0000       0.213178         5.8009 
 142   0.0000       0.214412         5.8345 
 143   0.0000       0.219971         5.9857 
 144   0.0000       0.220135         5.9902 
 145   0.0000       0.249423         6.7871 
 146   0.0000       0.250556         6.8180 
 147   0.0000       0.257538         7.0080 
 148   0.0000       0.257746         7.0136 
 149   0.0000       0.260734         7.0949 
 150   0.0000       0.282422         7.6851 
 151   0.0000       0.283279         7.7084 
 152   0.0000       0.283989         7.7277 
 153   0.0000       0.297785         8.1031 
 154   0.0000       0.298114         8.1121 
 155   0.0000       0.301714         8.2101 
 156   0.0000       0.307005         8.3540 
 157   0.0000       0.309541         8.4230 
 158   0.0000       0.310357         8.4452 
 159   0.0000       0.317632         8.6432 
 160   0.0000       0.317743         8.6462 
 161   0.0000       0.329792         8.9741 
 162   0.0000       0.338682         9.2160 
 163   0.0000       0.341189         9.2842 
 164   0.0000       0.353036         9.6066 
 165   0.0000       0.353576         9.6213 
 166   0.0000       0.384639        10.4666 
 167   0.0000       0.384648        10.4668 
 168   0.0000       0.389082        10.5875 
 169   0.0000       0.391928        10.6649 
 170   0.0000       0.400091        10.8870 
 171   0.0000       0.415667        11.3109 
 172   0.0000       0.416440        11.3319 
 173   0.0000       0.429962        11.6999 
 174   0.0000       0.432230        11.7616 
 175   0.0000       0.437209        11.8971 
 176   0.0000       0.437464        11.9040 
 177   0.0000       0.444557        12.0970 
 178   0.0000       0.447411        12.1747 
 179   0.0000       0.456818        12.4307 
 180   0.0000       0.457152        12.4397 
 181   0.0000       0.462273        12.5791 
 182   0.0000       0.470762        12.8101 
 183   0.0000       0.479099        13.0369 
 184   0.0000       0.479589        13.0503 
 185   0.0000       0.493002        13.4153 
 186   0.0000       0.494009        13.4427 
 187   0.0000       0.522744        14.2246 
 188   0.0000       0.542058        14.7501 
 189   0.0000       0.545060        14.8318 
 190   0.0000       0.546639        14.8748 
 191   0.0000       0.613529        16.6950 
 192   0.0000       0.822752        22.3882 
 193   0.0000       0.828463        22.5436 
 194   0.0000       0.838588        22.8191 
 195   0.0000       0.838955        22.8291 
 196   0.0000       0.852510        23.1980 
 197   0.0000       0.852792        23.2056 
 198   0.0000       0.898483        24.4490 
 199   0.0000       0.907545        24.6955 
 200   0.0000       0.908527        24.7223 
 201   0.0000       0.916589        24.9417 
 202   0.0000       0.930576        25.3223 
 203   0.0000       0.942376        25.6434 
 204   0.0000       0.943821        25.6827 
 205   0.0000       0.967419        26.3248 
 206   0.0000       0.976828        26.5808 
 207   0.0000       0.999960        27.2103 
 208   0.0000       1.001904        27.2632 
 209   0.0000       1.023803        27.8591 
 210   0.0000       1.038004        28.2455 
 211   0.0000       1.045344        28.4453 
 212   0.0000       1.049869        28.5684 
 213   0.0000       1.049936        28.5702 
 214   0.0000       1.067815        29.0567 
 215   0.0000       1.068429        29.0734 
 216   0.0000       1.068554        29.0768 
 217   0.0000       1.143008        31.1028 
 218   0.0000       1.143164        31.1071 
 219   0.0000       1.144135        31.1335 
 220   0.0000       1.196808        32.5668 
 221   0.0000       1.197573        32.5876 
 222   0.0000       1.212450        32.9925 
 223   0.0000       1.215082        33.0641 
 224   0.0000       1.224038        33.3078 
 225   0.0000       1.233681        33.5702 
 226   0.0000       1.243233        33.8301 
 227   0.0000       1.243972        33.8502 
 228   0.0000       1.291888        35.1541 
 229   0.0000       1.315842        35.8059 
 230   0.0000       1.317537        35.8520 
 231   0.0000       1.326993        36.1093 
 232   0.0000       2.366184        64.3871 
 233   0.0000       2.368839        64.4594 
 234   0.0000       2.399673        65.2984 
 235   0.0000       2.403344        65.3983 
 236   0.0000       2.403830        65.4115 
 237   0.0000       2.437793        66.3357 
 238   0.0000       2.444594        66.5208 
 239   0.0000       2.445119        66.5351 
 240   0.0000       2.452201        66.7278 
 241   0.0000       2.491543        67.7983 
 242   0.0000       2.495283        67.9001 
 243   0.0000       2.496507        67.9334 
 244   0.0000       2.509779        68.2946 
 245   0.0000       2.544048        69.2271 
 246   0.0000       2.544415        69.2370 
 247   0.0000       2.550821        69.4114 
 248   0.0000       2.563311        69.7512 
 249   0.0000       2.576737        70.1166 
 250   0.0000       2.613232        71.1097 
 251   0.0000       2.615156        71.1620 
 252   0.0000       2.652344        72.1740 
 253   0.0000       2.712350        73.8068 
 254   0.0000       2.751801        74.8803 
 255   0.0000       2.751889        74.8827 
 256   0.0000       3.053899        83.1008 
 257   0.0000       3.409352        92.7732 
 258   0.0000       3.409757        92.7842 
 259   0.0000       3.463817        94.2553 
 260   0.0000       3.465559        94.3027 
 261   0.0000       3.496660        95.1490 
 262   0.0000       3.500887        95.2640 
 263   0.0000       3.617849        98.4467 
 264   0.0000       3.784293       102.9759 
 265   0.0000       3.797123       103.3250 
 266   0.0000       3.800850       103.4264 
 267   0.0000       3.801297       103.4386 
 268   0.0000       3.802859       103.4811 
 269   0.0000       3.810210       103.6811 
 270   0.0000       3.817851       103.8890 
 271   0.0000       3.818409       103.9042 
 272   0.0000       3.819564       103.9356 
 273   0.0000       3.839163       104.4689 
 274   0.0000       3.862046       105.0916 
 275   0.0000       3.871249       105.3420 
 276   0.0000       3.874692       105.4357 
 277   0.0000       3.875171       105.4488 
 278   0.0000       3.894673       105.9795 
 279   0.0000       3.895701       106.0074 
 280   0.0000       3.902593       106.1949 
 281   0.0000       3.903526       106.2203 
 282   0.0000       3.926447       106.8441 
 283   0.0000       3.938067       107.1603 
 284   0.0000       3.948391       107.4412 
 285   0.0000       3.949582       107.4736 
 286   0.0000       3.985214       108.4432 
 287   0.0000       3.988664       108.5371 
 288   0.0000       3.988858       108.5423 
 289   0.0000       4.013191       109.2045 
 290   0.0000       4.013469       109.2120 
 291   0.0000       4.016986       109.3077 
 292   0.0000       4.023563       109.4867 
 293   0.0000       4.032428       109.7280 
 294   0.0000       4.048149       110.1557 
 295   0.0000       4.060551       110.4932 
 296   0.0000       4.060772       110.4992 
 297   0.0000       4.075646       110.9040 
 298   0.0000       4.078036       110.9690 
 299   0.0000       4.078600       110.9843 
 300   0.0000       4.155777       113.0844 
 301   0.0000       4.157317       113.1263 
 302   0.0000       4.170317       113.4801 
 303   0.0000       4.285312       116.6093 
 304   0.0000       5.965213       162.3217 
 305   0.0000       5.965305       162.3242 
 306   0.0000       5.965366       162.3259 
 307   0.0000       5.965516       162.3299 
 308   0.0000       5.965520       162.3301 
 309   0.0000       5.965546       162.3307 
 310   0.0000       5.965596       162.3321 
 311   0.0000       5.965647       162.3335 
 312   0.0000       5.965713       162.3353 
 313   0.0000       5.965788       162.3373 
 314   0.0000       5.965794       162.3375 
 315   0.0000       5.965823       162.3383 
 316   0.0000       5.965870       162.3396 
 317   0.0000       5.966167       162.3477 
 318   0.0000       5.966309       162.3515 
 319   0.0000       5.966341       162.3524 
 320   0.0000       5.966527       162.3575 
 321   0.0000       5.966655       162.3609 
 322   0.0000       5.966672       162.3614 
 323   0.0000       5.967052       162.3718 
 324   0.0000       5.967088       162.3727 
 325   0.0000       5.967201       162.3758 
 326   0.0000       5.967202       162.3758 
 327   0.0000       5.967294       162.3783 
 328   0.0000       5.967451       162.3826 
 329   0.0000       5.967602       162.3867 
 330   0.0000       5.967606       162.3868 
 331   0.0000       5.967618       162.3871 
 332   0.0000       5.967738       162.3904 
 333   0.0000       5.967755       162.3909 
 334   0.0000       5.967761       162.3910 
 335   0.0000       5.967790       162.3918 
 336   0.0000       5.967841       162.3932 
 337   0.0000       5.968176       162.4023 
 338   0.0000       5.968360       162.4073 
 339   0.0000       5.968380       162.4079 
 340   0.0000       5.968382       162.4079 
 341   0.0000       5.968584       162.4134 
 342   0.0000       5.969020       162.4253 
 343   0.0000       5.969076       162.4268 
 344   0.0000       5.970037       162.4530 
 345   0.0000       5.971658       162.4971 
 346   0.0000       5.971804       162.5010 
 347   0.0000       5.971895       162.5035 
 348   0.0000       5.971973       162.5056 
 349   0.0000       5.972171       162.5110 
 350   0.0000       5.972490       162.5197 
 351   0.0000       5.972559       162.5216 
 352   0.0000       5.972729       162.5262 
 353   0.0000       5.973658       162.5515 
 354   0.0000       5.973837       162.5564 
 355   0.0000       5.974357       162.5705 
 356   0.0000       5.974594       162.5770 
 357   0.0000       5.975944       162.6137 
 358   0.0000       5.976477       162.6282 
 359   0.0000       5.977134       162.6461 
------------------
MOLECULAR ORBITALS
------------------
                      0         1         2         3         4         5   
                 -324.98963 -324.98963 -324.98956 -324.98956 -324.98851 -324.98851
                   2.00000   2.00000   2.00000   2.00000   2.00000   2.00000
                  --------  --------  --------  --------  --------  --------
  0Cu  1s        -0.000150  0.001673 -0.000627  0.001130 -0.632209  0.770943
  0Cu  2s        -0.000001  0.000009 -0.000003  0.000006 -0.004755  0.005799
  0Cu  3s         0.000003 -0.000031  0.000011 -0.000021  0.001793 -0.002182
  0Cu  4s        -0.000005  0.000056 -0.000020  0.000037 -0.001180  0.001433
  0Cu  5s         0.000008 -0.000087  0.000007 -0.000091  0.000506 -0.000605
  0Cu  6s        -0.000003  0.000038 -0.000013  0.000016 -0.000151  0.000249
  0Cu  1pz       -0.000000  0.000003  0.000002 -0.000003 -0.000000 -0.000000
  0Cu  1px       -0.000002 -0.000000  0.000000 -0.000000  0.000000  0.000000
  0Cu  1py        0.000000 -0.000003 -0.000000  0.000000  0.000002 -0.000002
  0Cu  2pz        0.000001 -0.000016 -0.000010  0.000013 -0.000004  0.000007
  0Cu  2px        0.000009  0.000001 -0.000000  0.000000 -0.000000 -0.000000
  0Cu  2py       -0.000001  0.000012  0.000000 -0.000002 -0.000017  0.000021
  0Cu  3pz       -0.000004  0.000043  0.000028 -0.000037  0.000013 -0.000020
  0Cu  3px       -0.000026 -0.000002  0.000000 -0.000000  0.000000  0.000000
  0Cu  3py        0.000003 -0.000034 -0.000001  0.000005  0.000046 -0.000058
  0Cu  1dz2      -0.000000  0.000002  0.000004 -0.000005  0.000002 -0.000001
  0Cu  1dxz       0.000005  0.000000  0.000000  0.000000  0.000000  0.000000
  0Cu  1dyz      -0.000001  0.000006  0.000002 -0.000002 -0.000000  0.000000
  0Cu  1dx2y2    -0.000000  0.000002 -0.000001 -0.000001  0.000001  0.000001
  0Cu  1dxy      -0.000005 -0.000000  0.000000 -0.000000  0.000000  0.000000
  0Cu  2dz2       0.000001 -0.000009 -0.000017  0.000020 -0.000008  0.000004
  0Cu  2dxz      -0.000020 -0.000002 -0.000000 -0.000000 -0.000000 -0.000000
  0Cu  2dyz       0.000002 -0.000024 -0.000008  0.000007  0.000002 -0.000001
  0Cu  2dx2y2     0.000001 -0.000009  0.000004  0.000002 -0.000003 -0.000005
  0Cu  2dxy       0.000020  0.000002 -0.000000  0.000000 -0.000000 -0.000000
  0Cu  3dz2      -0.000002  0.000022  0.000045 -0.000051  0.000021 -0.000009
  0Cu  3dxz       0.000052  0.000005  0.000000  0.000000  0.000000  0.000000
  0Cu  3dyz      -0.000005  0.000058  0.000019 -0.000017 -0.000003  0.000003
  0Cu  3dx2y2    -0.000002  0.000023 -0.000008 -0.000002  0.000010  0.000010
  0Cu  3dxy      -0.000048 -0.000004 -0.000000 -0.000000  0.000000  0.000000
  0Cu  4pz        0.000011 -0.000124 -0.000079  0.000123 -0.000040  0.000056
  0Cu  4px        0.000075  0.000007  0.000000  0.000000 -0.000000 -0.000000
  0Cu  4py       -0.000009  0.000105  0.000008 -0.000001 -0.000116  0.000163
  0Cu  4dz2      -0.000002  0.000024  0.000050 -0.000048  0.000013 -0.000003
  0Cu  4dxz       0.000004  0.000000  0.000000  0.000000 -0.000000 -0.000000
  0Cu  4dyz      -0.000005  0.000059  0.000007 -0.000023 -0.000011 -0.000010
  0Cu  4dx2y2    -0.000000  0.000005 -0.000007 -0.000013 -0.000025  0.000031
  0Cu  4dxy      -0.000043 -0.000004 -0.000000 -0.000000  0.000000  0.000000
  0Cu  1f0       -0.000000  0.000001 -0.000001  0.000001 -0.000001  0.000001
  0Cu  1f+1       0.000000  0.000000  0.000000  0.000000 -0.000000  0.000000
  0Cu  1f-1      -0.000000  0.000000 -0.000001  0.000000 -0.000000  0.000000
  0Cu  1f+2      -0.000000  0.000000  0.000000 -0.000000 -0.000000  0.000000
  0Cu  1f-2      -0.000002 -0.000000 -0.000000 -0.000000 -0.000000 -0.000000
  0Cu  1f+3       0.000001  0.000000  0.000000  0.000000 -0.000000 -0.000000
  0Cu  1f-3       0.000000 -0.000000 -0.000000 -0.000000  0.000001 -0.000001
  1Cu  1s        -0.639601 -0.765349 -0.000268 -0.017389  0.000165  0.001655
  1Cu  2s        -0.004810 -0.005758 -0.000002 -0.000133  0.000002  0.000016
  1Cu  3s         0.001816  0.002154  0.000001  0.000032  0.000002  0.000021
  1Cu  4s        -0.001199 -0.001400  0.000000  0.000003 -0.000005 -0.000047
  1Cu  5s         0.000513  0.000591 -0.000001 -0.000091  0.000004  0.000040
  1Cu  6s        -0.000181 -0.000191  0.000000  0.000017 -0.000004 -0.000039
  1Cu  1pz        0.000001  0.000002 -0.000000 -0.000001  0.000000  0.000002
  1Cu  1px       -0.000003 -0.000001  0.000000  0.000000 -0.000000 -0.000002
  1Cu  1py       -0.000000  0.000000 -0.000000  0.000000  0.000002 -0.000000
  1Cu  2pz       -0.000016 -0.000023  0.000000  0.000006 -0.000001 -0.000008
  1Cu  2px        0.000020  0.000008 -0.000000 -0.000002  0.000001  0.000009
  1Cu  2py       -0.000000 -0.000000  0.000002 -0.000000 -0.000011  0.000001
  1Cu  3pz        0.000044  0.000062 -0.000000 -0.000017  0.000002  0.000022
  1Cu  3px       -0.000053 -0.000023  0.000000  0.000005 -0.000002 -0.000025
  1Cu  3py        0.000000  0.000000 -0.000006  0.000000  0.000030 -0.000003
  1Cu  1dz2      -0.000000  0.000004 -0.000000 -0.000002 -0.000000 -0.000001
  1Cu  1dxz      -0.000001 -0.000002  0.000000  0.000001 -0.000001 -0.000005
  1Cu  1dyz      -0.000000  0.000000 -0.000001  0.000000  0.000004 -0.000000
  1Cu  1dx2y2     0.000004 -0.000003  0.000000  0.000000 -0.000000 -0.000002
  1Cu  1dxy       0.000000 -0.000000  0.000001 -0.000000 -0.000005  0.000000
  1Cu  2dz2      -0.000000 -0.000016  0.000000  0.000008  0.000000  0.000005
  1Cu  2dxz       0.000005  0.000009 -0.000000 -0.000002  0.000002  0.000019
  1Cu  2dyz       0.000000 -0.000000  0.000004 -0.000000 -0.000017  0.000002
  1Cu  2dx2y2    -0.000016  0.000009 -0.000000 -0.000001  0.000001  0.000006
  1Cu  2dxy      -0.000000  0.000000 -0.000005  0.000000  0.000018 -0.000002
  1Cu  3dz2       0.000003  0.000037 -0.000000 -0.000020 -0.000001 -0.000014
  1Cu  3dxz      -0.000008 -0.000020  0.000000  0.000006 -0.000005 -0.000048
  1Cu  3dyz      -0.000000  0.000000 -0.000008  0.000000  0.000041 -0.000004
  1Cu  3dx2y2     0.000035 -0.000023  0.000000  0.000001 -0.000002 -0.000016
  1Cu  3dxy      -0.000000 -0.000000  0.000015 -0.000000 -0.000043  0.000004
  1Cu  4pz       -0.000126 -0.000186  0.000001  0.000068 -0.000005 -0.000048
  1Cu  4px        0.000137  0.000067 -0.000000 -0.000022  0.000007  0.000069
  1Cu  4py       -0.000000 -0.000000  0.000018 -0.000000 -0.000089  0.000009
  1Cu  4dz2      -0.000009  0.000042 -0.000000 -0.000015  0.000001  0.000006
  1Cu  4dxz      -0.000022 -0.000027  0.000000  0.000012 -0.000001 -0.000013
  1Cu  4dyz       0.000000  0.000000 -0.000018  0.000000  0.000034 -0.000003
  1Cu  4dx2y2     0.000033  0.000003 -0.000000 -0.000002  0.000001  0.000010
  1Cu  4dxy       0.000000  0.000000 -0.000020  0.000000 -0.000029  0.000003
  1Cu  1f0       -0.000000 -0.000000  0.000000  0.000000  0.000000  0.000001
  1Cu  1f+1      -0.000001  0.000000  0.000000  0.000000  0.000000  0.000001
  1Cu  1f-1      -0.000000  0.000000  0.000000 -0.000000 -0.000000  0.000000
  1Cu  1f+2       0.000000  0.000000 -0.000000 -0.000000  0.000000  0.000000
  1Cu  1f-2       0.000000  0.000000 -0.000000  0.000000  0.000001 -0.000000
  1Cu  1f+3      -0.000001  0.000001 -0.000000 -0.000000  0.000000  0.000001
  1Cu  1f-3       0.000000 -0.000000 -0.000000  0.000000  0.000000 -0.000000
  2Cu  1s        -0.000609  0.000846  0.000026  0.001732 -0.003276 -0.033138
  2Cu  2s        -0.000003  0.000004  0.000000  0.000009 -0.000024 -0.000245
  2Cu  3s         0.000012 -0.000017 -0.000000 -0.000033  0.000013  0.000128
  2Cu  4s        -0.000022  0.000032  0.000001  0.000058 -0.000013 -0.000127
  2Cu  5s         0.000011 -0.000083 -0.000001 -0.000092  0.000011  0.000108
  2Cu  6s        -0.000014  0.000013  0.000001  0.000041 -0.000001 -0.000012
  2Cu  1pz       -0.000002  0.000003 -0.000000 -0.000003 -0.000000 -0.000002
  2Cu  1px       -0.000000  0.000001 -0.000000 -0.000003  0.000000  0.000003
  2Cu  1py       -0.000000  0.000000 -0.000002  0.000000  0.000002 -0.000000
  2Cu  2pz        0.000011 -0.000013  0.000000  0.000015  0.000001  0.000009
  2Cu  2px        0.000001 -0.000002  0.000000  0.000013 -0.000001 -0.000014
  2Cu  2py        0.000000 -0.000000  0.000009 -0.000000 -0.000010  0.000001
  2Cu  3pz       -0.000031  0.000035 -0.000001 -0.000041 -0.000002 -0.000024
  2Cu  3px       -0.000002  0.000006 -0.000001 -0.000035  0.000004  0.000039
  2Cu  3py       -0.000000  0.000000 -0.000026  0.000000  0.000028 -0.000003
  2Cu  1dz2       0.000005 -0.000005  0.000000  0.000002 -0.000000 -0.000003
  2Cu  1dxz      -0.000002  0.000002 -0.000000 -0.000006 -0.000000 -0.000004
  2Cu  1dyz       0.000000  0.000000 -0.000005  0.000000 -0.000004  0.000000
  2Cu  1dx2y2     0.000001  0.000001 -0.000000 -0.000002  0.000000  0.000001
  2Cu  1dxy      -0.000000  0.000000 -0.000005  0.000000  0.000006 -0.000001
  2Cu  2dz2      -0.000019  0.000018 -0.000000 -0.000009  0.000001  0.000011
  2Cu  2dxz       0.000009 -0.000007  0.000000  0.000024  0.000002  0.000017
  2Cu  2dyz       0.000000 -0.000000  0.000020 -0.000000  0.000015 -0.000001
  2Cu  2dx2y2    -0.000003 -0.000003  0.000000  0.000009 -0.000000 -0.000004
  2Cu  2dxy       0.000000 -0.000000  0.000020 -0.000000 -0.000022  0.000002
  2Cu  3dz2       0.000048 -0.000046  0.000000  0.000020 -0.000003 -0.000031
  2Cu  3dxz      -0.000020  0.000018 -0.000001 -0.000057 -0.000004 -0.000039
  2Cu  3dyz      -0.000000  0.000000 -0.000052  0.000001 -0.000038  0.000004
  2Cu  3dx2y2     0.000007  0.000003 -0.000000 -0.000023  0.000001  0.000009
  2Cu  3dxy      -0.000000  0.000000 -0.000048  0.000001  0.000049 -0.000005
  2Cu  4pz        0.000087 -0.000117  0.000002  0.000116  0.000006  0.000059
  2Cu  4px        0.000010 -0.000005  0.000002  0.000106 -0.000011 -0.000107
  2Cu  4py        0.000000 -0.000000  0.000076 -0.000001 -0.000073  0.000007
  2Cu  4dz2       0.000055 -0.000044  0.000000  0.000023  0.000003  0.000026
  2Cu  4dxz      -0.000009  0.000025 -0.000001 -0.000057 -0.000002 -0.000024
  2Cu  4dyz       0.000000  0.000000 -0.000004  0.000000  0.000021 -0.000002
  2Cu  4dx2y2     0.000006  0.000013 -0.000000 -0.000005  0.000002  0.000016
  2Cu  4dxy      -0.000000  0.000000 -0.000042  0.000001  0.000045 -0.000004
  2Cu  1f0        0.000001 -0.000001 -0.000000 -0.000001 -0.000000 -0.000001
  2Cu  1f+1      -0.000001  0.000000  0.000000  0.000000  0.000000  0.000000
  2Cu  1f-1       0.000000 -0.000000  0.000000 -0.000000  0.000000 -0.000000
  2Cu  1f+2       0.000000 -0.000000  0.000000  0.000000  0.000000  0.000000
  2Cu  1f-2      -0.000000  0.000000  0.000002 -0.000000  0.000001 -0.000000
  2Cu  1f+3       0.000000  0.000000  0.000000  0.000000 -0.000000 -0.000001
  2Cu  1f-3      -0.000000  0.000000 -0.000001  0.000000  0.000001 -0.000000
  3Cu  1s        -0.001509  0.017281  0.694783 -0.715630 -0.000543  0.001058
  3Cu  2s        -0.000011  0.000128  0.005225 -0.005384 -0.000005  0.000010
  3Cu  3s         0.000006 -0.000065 -0.001972  0.002013 -0.000007  0.000013
  3Cu  4s        -0.000006  0.000066  0.001301 -0.001306  0.000015 -0.000030
  3Cu  5s         0.000011 -0.000118 -0.000558  0.000549  0.000007  0.000066
  3Cu  6s        -0.000002  0.000026  0.000195 -0.000177 -0.000001 -0.000044
  3Cu  1pz       -0.000000  0.000001  0.000001 -0.000002  0.000002 -0.000001
  3Cu  1px       -0.000000 -0.000000 -0.000000 -0.000000  0.000000  0.000000
  3Cu  1py        0.000000 -0.000000 -0.000003  0.000000  0.000001 -0.000001
  3Cu  2pz        0.000001 -0.000007 -0.000018  0.000021 -0.000007  0.000007
  3Cu  2px        0.000002  0.000000  0.000000  0.000000 -0.000000 -0.000000
  3Cu  2py       -0.000000  0.000002  0.000021 -0.000007 -0.000003  0.000003
  3Cu  3pz       -0.000002  0.000020  0.000049 -0.000059  0.000021 -0.000020
  3Cu  3px       -0.000006 -0.000001 -0.000000 -0.000000  0.000000  0.000000
  3Cu  3py        0.000001 -0.000006 -0.000055  0.000018  0.000010 -0.000008
  3Cu  1dz2       0.000000 -0.000002 -0.000000  0.000004 -0.000004  0.000003
  3Cu  1dxz       0.000001  0.000000  0.000000  0.000000 -0.000000 -0.000000
  3Cu  1dyz      -0.000000  0.000001  0.000001 -0.000002 -0.000000  0.000003
  3Cu  1dx2y2     0.000000 -0.000000  0.000004  0.000003  0.000001  0.000000
  3Cu  1dxy      -0.000001 -0.000000 -0.000000 -0.000000  0.000000  0.000000
  3Cu  2dz2      -0.000001  0.000009  0.000002 -0.000016  0.000017 -0.000014
  3Cu  2dxz      -0.000004 -0.000000 -0.000000 -0.000000  0.000000  0.000000
  3Cu  2dyz       0.000000 -0.000003 -0.000005  0.000008  0.000002 -0.000010
  3Cu  2dx2y2    -0.000000  0.000001 -0.000015 -0.000011 -0.000002 -0.000000
  3Cu  2dxy       0.000005  0.000000  0.000000  0.000000 -0.000000 -0.000000
  3Cu  3dz2       0.000002 -0.000022 -0.000007  0.000037 -0.000042  0.000037
  3Cu  3dxz       0.000008  0.000001  0.000000  0.000000 -0.000000 -0.000000
  3Cu  3dyz      -0.000001  0.000007  0.000010 -0.000018 -0.000005  0.000024
  3Cu  3dx2y2     0.000000 -0.000003  0.000033  0.000026  0.000005 -0.000001
  3Cu  3dxy      -0.000015 -0.000001 -0.000000 -0.000000  0.000000  0.000000
  3Cu  4pz        0.000007 -0.000076 -0.000142  0.000175 -0.000056  0.000068
  3Cu  4px        0.000019  0.000002  0.000000  0.000000 -0.000000 -0.000000
  3Cu  4py       -0.000002  0.000025  0.000140 -0.000055 -0.000034  0.000022
  3Cu  4dz2       0.000001 -0.000017  0.000005  0.000042 -0.000031  0.000033
  3Cu  4dxz       0.000018  0.000002 -0.000000  0.000000 -0.000000 -0.000000
  3Cu  4dyz      -0.000001  0.000013  0.000024 -0.000025 -0.000026  0.000007
  3Cu  4dx2y2    -0.000000  0.000001  0.000033 -0.000000  0.000007  0.000003
  3Cu  4dxy       0.000020  0.000002  0.000000  0.000000  0.000000  0.000000
  3Cu  1f0        0.000000 -0.000000 -0.000000  0.000000 -0.000001  0.000001
  3Cu  1f+1       0.000000  0.000000  0.000000  0.000000  0.000000 -0.000000
  3Cu  1f-1      -0.000000  0.000000 -0.000001 -0.000000 -0.000000  0.000001
  3Cu  1f+2       0.000000 -0.000000 -0.000000  0.000000  0.000000  0.000000
  3Cu  1f-2      -0.000000 -0.000000 -0.000000 -0.000000  0.000000  0.000000
  3Cu  1f+3       0.000000  0.000000  0.000000  0.000000 -0.000000 -0.000000
  3Cu  1f-3       0.000000 -0.000000  0.000001  0.000001  0.000000 -0.000000
  4Cu  1s        -0.000150  0.001673  0.000661  0.001111  0.771650  0.631348
  4Cu  2s        -0.000001  0.000009  0.000004  0.000006  0.005804  0.004749
  4Cu  3s         0.000003 -0.000031 -0.000012 -0.000020 -0.002188 -0.001786
  4Cu  4s        -0.000005  0.000056  0.000021  0.000037  0.001439  0.001172
  4Cu  5s         0.000008 -0.000087 -0.000010 -0.000091 -0.000615 -0.000494
  4Cu  6s        -0.000003  0.000038  0.000014  0.000015  0.000197  0.000215
  4Cu  1pz       -0.000000  0.000003 -0.000002 -0.000003  0.000000 -0.000000
  4Cu  1px       -0.000002 -0.000000 -0.000000 -0.000000  0.000000  0.000000
  4Cu  1py       -0.000000  0.000003 -0.000000 -0.000000  0.000002  0.000002
  4Cu  2pz        0.000001 -0.000016  0.000010  0.000013  0.000006  0.000006
  4Cu  2px        0.000009  0.000001  0.000000  0.000000 -0.000000 -0.000000
  4Cu  2py        0.000001 -0.000012  0.000000  0.000002 -0.000021 -0.000017
  4Cu  3pz       -0.000004  0.000043 -0.000029 -0.000036 -0.000016 -0.000017
  4Cu  3px       -0.000026 -0.000002 -0.000000 -0.000000  0.000000  0.000000
  4Cu  3py       -0.000003  0.000034 -0.000001 -0.000005  0.000057  0.000048
  4Cu  1dz2      -0.000000  0.000002 -0.000005 -0.000005 -0.000002 -0.000001
  4Cu  1dxz       0.000005  0.000000  0.000000  0.000000  0.000000  0.000000
  4Cu  1dyz       0.000001 -0.000006  0.000002  0.000002 -0.000000 -0.000000
  4Cu  1dx2y2    -0.000000  0.000002  0.000001 -0.000001 -0.000001  0.000001
  4Cu  1dxy       0.000005  0.000000  0.000000  0.000000 -0.000000 -0.000000
  4Cu  2dz2       0.000001 -0.000009  0.000018  0.000020  0.000009  0.000003
  4Cu  2dxz      -0.000020 -0.000002 -0.000000 -0.000000 -0.000000 -0.000000
  4Cu  2dyz      -0.000002  0.000024 -0.000009 -0.000006  0.000002  0.000001
  4Cu  2dx2y2     0.000001 -0.000009 -0.000004  0.000002  0.000002 -0.000005
  4Cu  2dxy      -0.000020 -0.000002 -0.000000 -0.000000  0.000000  0.000000
  4Cu  3dz2      -0.000002  0.000022 -0.000046 -0.000050 -0.000022 -0.000005
  4Cu  3dxz       0.000052  0.000005  0.000000  0.000000  0.000000  0.000000
  4Cu  3dyz       0.000005 -0.000058  0.000020  0.000017 -0.000004 -0.000002
  4Cu  3dx2y2    -0.000002  0.000023  0.000008 -0.000002 -0.000007  0.000012
  4Cu  3dxy       0.000048  0.000004  0.000000  0.000000 -0.000000 -0.000000
  4Cu  4pz        0.000011 -0.000124  0.000082  0.000120  0.000050  0.000048
  4Cu  4px        0.000075  0.000007  0.000000  0.000000 -0.000000 -0.000000
  4Cu  4py        0.000009 -0.000105  0.000008  0.000001 -0.000146 -0.000137
  4Cu  4dz2      -0.000002  0.000024 -0.000052 -0.000046 -0.000013 -0.000001
  4Cu  4dxz       0.000004  0.000000  0.000000  0.000000 -0.000000 -0.000000
  4Cu  4dyz       0.000005 -0.000059  0.000007  0.000023 -0.000009  0.000012
  4Cu  4dx2y2    -0.000000  0.000005  0.000007 -0.000013  0.000030  0.000025
  4Cu  4dxy       0.000043  0.000004 -0.000000  0.000000 -0.000000 -0.000000
  4Cu  1f0       -0.000000  0.000001  0.000001  0.000001  0.000001  0.000000
  4Cu  1f+1       0.000000  0.000000  0.000000  0.000000  0.000000  0.000000
  4Cu  1f-1       0.000000 -0.000000 -0.000001 -0.000000 -0.000000 -0.000000
  4Cu  1f+2      -0.000000  0.000000 -0.000000 -0.000000  0.000000  0.000000
  4Cu  1f-2       0.000002  0.000000 -0.000000 -0.000000  0.000000  0.000000
  4Cu  1f+3       0.000001  0.000000 -0.000000  0.000000 -0.000000 -0.000000
  4Cu  1f-3      -0.000000  0.000000 -0.000000  0.000000  0.000001  0.000001
  5Cu  1s         0.000448  0.000941  0.000026  0.001732 -0.003270 -0.033093
  5Cu  2s         0.000002  0.000005  0.000000  0.000009 -0.000024 -0.000244
  5Cu  3s        -0.000009 -0.000019 -0.000000 -0.000033  0.000013  0.000127
  5Cu  4s         0.000016  0.000035  0.000001  0.000058 -0.000013 -0.000127
  5Cu  5s         0.000004 -0.000084 -0.000001 -0.000092  0.000011  0.000108
  5Cu  6s         0.000011  0.000015  0.000001  0.000041 -0.000001 -0.000012
  5Cu  1pz        0.000002  0.000003 -0.000000 -0.000003 -0.000000 -0.000002
  5Cu  1px       -0.000000 -0.000001  0.000000  0.000003 -0.000000 -0.000003
  5Cu  1py       -0.000000  0.000000 -0.000002  0.000000  0.000002 -0.000000
  5Cu  2pz       -0.000009 -0.000014  0.000000  0.000015  0.000001  0.000009
  5Cu  2px        0.000000  0.000003 -0.000000 -0.000013  0.000001  0.000014
  5Cu  2py        0.000000 -0.000000  0.000009 -0.000000 -0.000010  0.000001
  5Cu  3pz        0.000024  0.000040 -0.000001 -0.000041 -0.000002 -0.000024
  5Cu  3px       -0.000001 -0.000006  0.000001  0.000035 -0.000004 -0.000039
  5Cu  3py       -0.000000  0.000000 -0.000026  0.000000  0.000028 -0.000003
  5Cu  1dz2      -0.000004 -0.000006  0.000000  0.000002 -0.000000 -0.000003
  5Cu  1dxz      -0.000002 -0.000002  0.000000  0.000006  0.000000  0.000004
  5Cu  1dyz       0.000000  0.000000 -0.000005  0.000000 -0.000004  0.000000
  5Cu  1dx2y2    -0.000001  0.000001 -0.000000 -0.000002  0.000000  0.000001
  5Cu  1dxy      -0.000000 -0.000000  0.000005 -0.000000 -0.000006  0.000001
  5Cu  2dz2       0.000015  0.000021 -0.000000 -0.000009  0.000001  0.000011
  5Cu  2dxz       0.000007  0.000008 -0.000000 -0.000024 -0.000002 -0.000017
  5Cu  2dyz      -0.000000 -0.000000  0.000020 -0.000000  0.000015 -0.000001
  5Cu  2dx2y2     0.000004 -0.000002  0.000000  0.000009 -0.000000 -0.000004
  5Cu  2dxy       0.000000  0.000000 -0.000020  0.000000  0.000022 -0.000002
  5Cu  3dz2      -0.000039 -0.000054  0.000000  0.000020 -0.000003 -0.000031
  5Cu  3dxz      -0.000017 -0.000022  0.000001  0.000057  0.000004  0.000039
  5Cu  3dyz       0.000000  0.000000 -0.000052  0.000001 -0.000038  0.000004
  5Cu  3dx2y2    -0.000008  0.000002 -0.000000 -0.000023  0.000001  0.000009
  5Cu  3dxy      -0.000000 -0.000000  0.000048 -0.000001 -0.000049  0.000005
  5Cu  4pz       -0.000065 -0.000130  0.000002  0.000116  0.000006  0.000059
  5Cu  4px        0.000009  0.000007 -0.000002 -0.000106  0.000011  0.000107
  5Cu  4py       -0.000000 -0.000000  0.000076 -0.000001 -0.000073  0.000007
  5Cu  4dz2      -0.000046 -0.000053  0.000000  0.000023  0.000003  0.000026
  5Cu  4dxz      -0.000005 -0.000026  0.000001  0.000057  0.000002  0.000024
  5Cu  4dyz       0.000000 -0.000000 -0.000004  0.000000  0.000021 -0.000002
  5Cu  4dx2y2    -0.000008  0.000012 -0.000000 -0.000005  0.000002  0.000016
  5Cu  4dxy       0.000000 -0.000000  0.000042 -0.000001 -0.000045  0.000004
  5Cu  1f0       -0.000001 -0.000001 -0.000000 -0.000001 -0.000000 -0.000001
  5Cu  1f+1      -0.000001 -0.000000 -0.000000 -0.000000 -0.000000 -0.000000
  5Cu  1f-1      -0.000000 -0.000000  0.000000 -0.000000  0.000000 -0.000000
  5Cu  1f+2      -0.000000 -0.000000  0.000000  0.000000  0.000000  0.000000
  5Cu  1f-2       0.000000 -0.000000 -0.000002  0.000000 -0.000001  0.000000
  5Cu  1f+3       0.000000  0.000000 -0.000000 -0.000000  0.000000  0.000001
  5Cu  1f-3       0.000000  0.000000 -0.000001  0.000000  0.000001 -0.000000
  6Cu  1s        -0.001509  0.017296 -0.715842 -0.694564  0.000741  0.000930
  6Cu  2s        -0.000011  0.000128 -0.005383 -0.005225  0.000007  0.000009
  6Cu  3s         0.000006 -0.000065  0.002031  0.001953  0.000009  0.000011
  6Cu  4s        -0.000006  0.000066 -0.001339 -0.001267 -0.000020 -0.000026
  6Cu  5s         0.000011 -0.000118  0.000574  0.000532  0.000006  0.000066
  6Cu  6s        -0.000002  0.000026 -0.000200 -0.000171 -0.000008 -0.000044
  6Cu  1pz       -0.000000  0.000001 -0.000001 -0.000002 -0.000002 -0.000001
  6Cu  1px       -0.000000 -0.000000 -0.000000  0.000000  0.000000  0.000000
  6Cu  1py       -0.000000  0.000000 -0.000003 -0.000000  0.000001  0.000000
  6Cu  2pz        0.000001 -0.000007  0.000019  0.000021  0.000009  0.000005
  6Cu  2px        0.000002  0.000000  0.000000 -0.000000 -0.000000 -0.000000
  6Cu  2py        0.000000 -0.000002  0.000021  0.000006 -0.000004 -0.000002
  6Cu  3pz       -0.000002  0.000020 -0.000051 -0.000057 -0.000024 -0.000016
  6Cu  3px       -0.000006 -0.000001 -0.000000 -0.000000  0.000000  0.000000
  6Cu  3py       -0.000001  0.000006 -0.000055 -0.000017  0.000011  0.000006
  6Cu  1dz2       0.000000 -0.000002  0.000001  0.000004  0.000005  0.000003
  6Cu  1dxz       0.000001  0.000000  0.000000 -0.000000 -0.000000 -0.000000
  6Cu  1dyz       0.000000 -0.000001  0.000002  0.000002 -0.000001 -0.000003
  6Cu  1dx2y2     0.000000 -0.000000 -0.000004  0.000003 -0.000000  0.000000
  6Cu  1dxy       0.000001  0.000000  0.000000 -0.000000 -0.000000 -0.000000
  6Cu  2dz2      -0.000001  0.000009 -0.000002 -0.000016 -0.000019 -0.000010
  6Cu  2dxz      -0.000004 -0.000000 -0.000000  0.000000  0.000000  0.000000
  6Cu  2dyz      -0.000000  0.000003 -0.000005 -0.000008  0.000004  0.000010
  6Cu  2dx2y2    -0.000000  0.000001  0.000014 -0.000011  0.000002 -0.000001
  6Cu  2dxy      -0.000005 -0.000000 -0.000000  0.000000  0.000000  0.000000
  6Cu  3dz2       0.000002 -0.000022  0.000008  0.000037  0.000048  0.000028
  6Cu  3dxz       0.000008  0.000001  0.000000 -0.000000 -0.000000 -0.000000
  6Cu  3dyz       0.000001 -0.000007  0.000010  0.000018 -0.000010 -0.000023
  6Cu  3dx2y2     0.000000 -0.000003 -0.000032  0.000027 -0.000005  0.000000
  6Cu  3dxy       0.000015  0.000001  0.000000 -0.000000 -0.000000 -0.000000
  6Cu  4pz        0.000007 -0.000076  0.000147  0.000171  0.000068  0.000056
  6Cu  4px        0.000019  0.000002  0.000000  0.000000 -0.000000 -0.000000
  6Cu  4py        0.000002 -0.000025  0.000142  0.000051 -0.000038 -0.000015
  6Cu  4dz2       0.000001 -0.000017 -0.000004  0.000042  0.000037  0.000026
  6Cu  4dxz       0.000018  0.000002 -0.000000  0.000000 -0.000000 -0.000000
  6Cu  4dyz       0.000001 -0.000013  0.000025  0.000025 -0.000026 -0.000002
  6Cu  4dx2y2    -0.000000  0.000001 -0.000033  0.000001 -0.000006  0.000004
  6Cu  4dxy      -0.000020 -0.000002 -0.000000 -0.000000 -0.000000 -0.000000
  6Cu  1f0        0.000000 -0.000000  0.000000  0.000000  0.000001  0.000001
  6Cu  1f+1       0.000000  0.000000 -0.000000  0.000000 -0.000000 -0.000000
  6Cu  1f-1       0.000000 -0.000000 -0.000001  0.000000 -0.000000 -0.000000
  6Cu  1f+2       0.000000 -0.000000  0.000000  0.000000 -0.000000  0.000000
  6Cu  1f-2       0.000000  0.000000  0.000000  0.000000 -0.000000 -0.000000
  6Cu  1f+3       0.000000  0.000000 -0.000000  0.000000 -0.000000 -0.000000
  6Cu  1f-3      -0.000000  0.000000  0.000001 -0.000001  0.000000  0.000000
[...]
Density matrix formation    ....       0.082 sec  (  0.1%)
Population analysis         ....       0.038 sec  (  0.0%)
Initial guess               ....       0.246 sec  (  0.3%)
Orbital Transformation      ....       0.000 sec  (  0.0%)
Orbital Orthonormalization  ....       0.000 sec  (  0.0%)
DIIS solution               ....       0.744 sec  (  1.0%)
Grid generation             ....       2.224 sec  (  2.9%)

Maximum memory used throughout the entire SCF-calculation: 81.7 MB


           ************************************************************
           *        Program running with 16 parallel MPI-processes    *
           *              working on a common directory               *
           ************************************************************
------------------------------------------------------------------------------
                        ORCA TD-DFT/TDA CALCULATION
------------------------------------------------------------------------------

Input orbitals are from        ... cu8.gbw
CI-vector output               ... cu8.cis
Tamm-Dancoff approximation     ... operative
CIS-Integral strategy          ... AO-integrals
Integral handling              ... AO integral Direct
Max. core memory used          ... 512 MB
Reference state                ... RHF
Generation of triplets         ... off
Follow IRoot                   ... off
Number of operators            ... 1
Orbital ranges used for CIS calculation:
 Operator 0:  Orbitals  40...115  to 116...359
XAS localization array:
 Operator 0:  Orbitals  -1... -1

-------------------
XC-INTEGRATION GRID
-------------------

General Integration Accuracy     IntAcc      ... 3.467
Radial Grid Type                 RadialGrid  ... OptM3 with GC (2021)
Angular Grid (max. ang.)         AngularGrid ... 1 (Lebedev-50)
Angular grid pruning method      GridPruning ... 4 (adaptive)
Weight generation scheme         WeightScheme... Becke
Basis function cutoff            BFCut       ... 1.0000e-11
Integration weight cutoff        WCut        ... 1.0000e-14
Angular grids for H and He will be reduced by one unit
Partially contracted basis set               ... off
Rotationally invariant grid construction     ... off

Total number of grid points                  ...    34220
Total number of batches                      ...      539
Average number of points per batch           ...       63
Average number of grid points per atom       ...     4278

---------------------
COSX-INTEGRATION GRID
---------------------

General Integration Accuracy     IntAcc      ... 3.067
Radial Grid Type                 RadialGrid  ... OptM3 with GC (2021)
Angular Grid (max. ang.)         AngularGrid ... 1 (Lebedev-50)
Angular grid pruning method      GridPruning ... 4 (adaptive)
Weight generation scheme         WeightScheme... Becke
Basis function cutoff            BFCut       ... 1.0000e-11
Integration weight cutoff        WCut        ... 1.0000e-14
Angular grids for H and He will be reduced by one unit
Partially contracted basis set               ... on
Rotationally invariant grid construction     ... off

Total number of grid points                  ...     6520
Total number of batches                      ...      104
Average number of points per batch           ...       62
Average number of grid points per atom       ...      815

---------------
TD-DFT XC SETUP
---------------

DFT calculation                         ... on
Name of the grid file                   ... cu8.grid_cis.tmp
Exchange functional (TD-DFT)            ... M062X
Correlation functional (TD-DFT)         ... M062X
Hybrid DFT                              ... on
   Exchange mixing (TD-DFT)             ...  0.540
   GGA exch. scaling (TD-DFT)           ...  0.460
   GGA corr. scaling (TD-DFT)           ...  1.000

Building densities             ... done
Calculating rho(r) on the grid ... done
Building xc-kernel on the grid ... done
                    *** TD-DFT CALCULATION INITIALIZED ***

---------------------------------
    LR-CPCM (non-equilibrium)
---------------------------------

Setting up LR-CPCM             ... done

------------------------
DAVIDSON-DIAGONALIZATION
------------------------

Dimension of the eigenvalue problem            ...  18544
Number of roots to be determined               ...     12
Maximum size of the expansion space            ...    720
Maximum number of iterations                   ...    100
Convergence tolerance for the residual         ...    2.500e-07
Convergence tolerance for the energies         ...    2.500e-07
Orthogonality tolerance                        ...    1.000e-14
Level Shift                                    ...    0.000e+00
Constructing the preconditioner                ... o.k.
Building the initial guess                     ... o.k.
Number of trial vectors determined             ...    512


                       ****Iteration    0****

   Memory handling for direct AO based CIS:
   Memory per vector needed      ...     5 MB
   Memory needed                 ...   213 MB
   Memory available              ...   512 MB
   Number of vectors per batch   ...    86
   Number of batches             ...     1
   Time for densities:            0.132
   Time for RI-J (Direct):        1.144
   Time for K (COSX):             3.784
   Time for XC-Integration:       5.873
   Time for LR-CPCM terms:        2.564
   Time for Sigma-Completion:     0.174
   Size of expansion space: 36
   Lowest Energy          :     0.072602827562
   Maximum Energy change  :     0.111161525767 (vector 11)
   Maximum residual norm  :     0.003224104964

                       ****Iteration    1****
   Time for densities:            0.049
   Time for RI-J (Direct):        0.571
   Time for K (COSX):             1.558
   Time for XC-Integration:       2.134
   Time for LR-CPCM terms:        1.056
   Time for Sigma-Completion:     0.055
   Size of expansion space: 48
   Lowest Energy          :     0.070445325153
   Maximum Energy change  :     0.003974749864 (vector 11)
   Maximum residual norm  :     0.001119384240

                       ****Iteration    2****
   Time for densities:            0.048
   Time for RI-J (Direct):        0.560
   Time for K (COSX):             1.555
   Time for XC-Integration:       2.134
   Time for LR-CPCM terms:        1.054
   Time for Sigma-Completion:     0.061
   Size of expansion space: 60
   Lowest Energy          :     0.070177302805
   Maximum Energy change  :     0.000529006225 (vector 5)
   Maximum residual norm  :     0.000193298617

                       ****Iteration    3****
   Time for densities:            0.046
   Time for RI-J (Direct):        0.582
   Time for K (COSX):             1.554
   Time for XC-Integration:       2.150
   Time for LR-CPCM terms:        1.047
   Time for Sigma-Completion:     0.054
   Size of expansion space: 72
   Lowest Energy          :     0.070136641974
   Maximum Energy change  :     0.000142617021 (vector 5)
   Maximum residual norm  :     0.000017053565

                       ****Iteration    4****
   Time for densities:            0.050
   Time for RI-J (Direct):        0.565
   Time for K (COSX):             1.572
   Time for XC-Integration:       2.169
   Time for LR-CPCM terms:        1.050
   Time for Sigma-Completion:     0.056
   Size of expansion space: 84
   Lowest Energy          :     0.070134498821
   Maximum Energy change  :     0.000008896907 (vector 5)
   Maximum residual norm  :     0.000003630023

                       ****Iteration    5****
   Time for densities:            0.051
   Time for RI-J (Direct):        0.565
   Time for K (COSX):             1.561
   Time for XC-Integration:       2.154
   Time for LR-CPCM terms:        1.045
   Time for Sigma-Completion:     0.056
   Size of expansion space: 96
   Lowest Energy          :     0.070134330983
   Maximum Energy change  :     0.000001850339 (vector 5)
   Maximum residual norm  :     0.000000898077

                       ****Iteration    6****
   Time for densities:            0.046
   Time for RI-J (Direct):        0.581
   Time for K (COSX):             1.565
   Time for XC-Integration:       2.188
   Time for LR-CPCM terms:        1.048
   Time for Sigma-Completion:     0.056
   Size of expansion space: 108
   Lowest Energy          :     0.070134319414
   Maximum Energy change  :     0.000000507417 (vector 5)
   Maximum residual norm  :     0.000000048024

      *** CONVERGENCE OF RESIDUAL NORM REACHED ***

Storing the converged CI vectors               ... cu8.cis1

                 *** DAVIDSON DONE ***

Total time for solving the CIS problem:    47.692sec

------------------------------------
TD-DFT/TDA EXCITED STATES (SINGLETS)
------------------------------------

the weight of the individual excitations are printed if larger than 1.0e-02

STATE  1:  E=   0.070134 au      1.908 eV    15392.7 cm**-1 <S**2> =   0.000000
   115a -> 116a  :     0.964095 (c=  0.98188362)
   115a -> 119a  :     0.018421 (c=  0.13572390)

STATE  2:  E=   0.070182 au      1.910 eV    15403.2 cm**-1 <S**2> =   0.000000
   114a -> 116a  :     0.963041 (c=  0.98134634)
   114a -> 119a  :     0.019551 (c= -0.13982566)

STATE  3:  E=   0.072663 au      1.977 eV    15947.7 cm**-1 <S**2> =   0.000000
   114a -> 118a  :     0.435251 (c= -0.65973551)
   115a -> 117a  :     0.552817 (c=  0.74351680)

STATE  4:  E=   0.075163 au      2.045 eV    16496.3 cm**-1 <S**2> =   0.000000
   114a -> 118a  :     0.551097 (c= -0.74235935)
   115a -> 117a  :     0.433444 (c= -0.65836459)

STATE  5:  E=   0.077857 au      2.119 eV    17087.5 cm**-1 <S**2> =   0.000000
   114a -> 117a  :     0.494950 (c=  0.70352715)
   115a -> 118a  :     0.480140 (c= -0.69292121)

STATE  6:  E=   0.086567 au      2.356 eV    18999.2 cm**-1 <S**2> =   0.000000
   113a -> 116a  :     0.447601 (c=  0.66902975)
   114a -> 117a  :     0.257963 (c= -0.50790039)
   115a -> 118a  :     0.272628 (c= -0.52213792)

STATE  7:  E=   0.092505 au      2.517 eV    20302.5 cm**-1 <S**2> =   0.000000
   113a -> 118a  :     0.194756 (c=  0.44131176)
   115a -> 116a  :     0.011023 (c=  0.10499127)
   115a -> 119a  :     0.700216 (c= -0.83678919)
   115a -> 120a  :     0.079591 (c= -0.28211957)

STATE  8:  E=   0.092628 au      2.521 eV    20329.5 cm**-1 <S**2> =   0.000000
   113a -> 117a  :     0.208506 (c=  0.45662446)
   114a -> 116a  :     0.011724 (c=  0.10827947)
   114a -> 119a  :     0.688435 (c=  0.82971965)
   114a -> 120a  :     0.076627 (c= -0.27681525)

STATE  9:  E=   0.101839 au      2.771 eV    22351.2 cm**-1 <S**2> =   0.000000
   113a -> 117a  :     0.391390 (c= -0.62561143)
   114a -> 120a  :     0.582464 (c= -0.76319307)

STATE 10:  E=   0.101887 au      2.772 eV    22361.7 cm**-1 <S**2> =   0.000000
   113a -> 118a  :     0.406062 (c= -0.63722993)
   115a -> 120a  :     0.569129 (c= -0.75440657)

STATE 11:  E=   0.106574 au      2.900 eV    23390.3 cm**-1 <S**2> =   0.000000
   113a -> 117a  :     0.175578 (c= -0.41902057)
   114a -> 119a  :     0.097993 (c=  0.31303877)
   114a -> 120a  :     0.167987 (c=  0.40986260)
   115a -> 121a  :     0.534770 (c=  0.73127942)

STATE 12:  E=   0.106695 au      2.903 eV    23416.8 cm**-1 <S**2> =   0.000000
   113a -> 118a  :     0.174159 (c=  0.41732402)
   114a -> 121a  :     0.536534 (c= -0.73248454)
   115a -> 119a  :     0.094269 (c=  0.30703208)
   115a -> 120a  :     0.171448 (c= -0.41406228)


-----------------------------
TD-DFT/TDA-EXCITATION SPECTRA
-----------------------------

Center of mass = (  0.0000,  0.0000, -0.0000)
Calculating the Dipole integrals                  ... done
Transforming integrals                            ... done
Calculating the Linear Momentum integrals         ... done
Transforming integrals                            ... done
Calculating angular momentum integrals            ... done
Transforming integrals                            ... done

-----------------------------------------------------------------------------
         ABSORPTION SPECTRUM VIA TRANSITION ELECTRIC DIPOLE MOMENTS
-----------------------------------------------------------------------------
State   Energy    Wavelength  fosc         T2        TX        TY        TZ  
        (cm-1)      (nm)                 (au**2)    (au)      (au)      (au) 
-----------------------------------------------------------------------------
   1   15392.7    649.7   0.005866555   0.12547   0.00064   0.35422  -0.00001
   2   15403.2    649.2   0.005973834   0.12768   0.35732  -0.00063   0.00000
   3   15947.7    627.0   0.000000000   0.00000  -0.00001   0.00000   0.00000
   4   16496.3    606.2   0.000000000   0.00000   0.00001  -0.00000  -0.00001
   5   17087.5    585.2   0.000006800   0.00013   0.00000   0.00000   0.01145
   6   18999.2    526.3   0.014176658   0.24565  -0.00000   0.00001  -0.49563
   7   20302.5    492.5   0.004276694   0.06935   0.00011  -0.26334  -0.00001
   8   20329.5    491.9   0.004564516   0.07392  -0.27188  -0.00010   0.00000
   9   22351.2    447.4   0.006214489   0.09153   0.30255   0.00027  -0.00001
  10   22361.7    447.2   0.006478307   0.09537  -0.00024   0.30883   0.00000
  11   23390.3    427.5   0.132222109   1.86099  -1.36418  -0.00053  -0.00001
  12   23416.8    427.0   0.130106712   1.82914  -0.00055   1.35246  -0.00003

-----------------------------------------------------------------------------
         ABSORPTION SPECTRUM VIA TRANSITION VELOCITY DIPOLE MOMENTS
-----------------------------------------------------------------------------
State   Energy    Wavelength   fosc        P2         PX        PY        PZ  
        (cm-1)      (nm)                 (au**2)     (au)      (au)      (au) 
-----------------------------------------------------------------------------
   1   15392.7    649.7   0.024573143   0.00259  -0.00009  -0.05084   0.00000
   2   15403.2    649.2   0.025000343   0.00263  -0.05130   0.00009  -0.00000
   3   15947.7    627.0   0.000000000   0.00000   0.00000  -0.00000   0.00000
   4   16496.3    606.2   0.000000000   0.00000  -0.00000   0.00000   0.00000
   5   17087.5    585.2   0.000000679   0.00000   0.00000   0.00000   0.00028
   6   18999.2    526.3   0.006730799   0.00087  -0.00000  -0.00000  -0.02956
   7   20302.5    492.5   0.000698930   0.00010   0.00000  -0.00985   0.00000
   8   20329.5    491.9   0.000521608   0.00007  -0.00851  -0.00000  -0.00000
   9   22351.2    447.4   0.014443376   0.00221  -0.04697  -0.00004   0.00000
  10   22361.7    447.2   0.014096054   0.00215   0.00004  -0.04641   0.00000
  11   23390.3    427.5   0.046744429   0.00747   0.08644   0.00003   0.00000
  12   23416.8    427.0   0.045899650   0.00735   0.00003  -0.08571   0.00000

-------------------------------------------------------------------
                             CD SPECTRUM
-------------------------------------------------------------------
State  Energy     Wavelength     R         MX        MY        MZ   
       (cm-1)       (nm)     (1e40*cgs)   (au)      (au)      (au)  
-------------------------------------------------------------------
   1   15392.7    649.7     -0.05928  -0.10225  -0.00017  -0.00000
   2   15403.2    649.2      0.05924   0.00018  -0.09619   0.00000
   3   15947.7    627.0      0.00000  -0.00000   0.00000   0.01324
   4   16496.3    606.2      0.00121  -0.00000   0.00000  -0.21913
   5   17087.5    585.2      0.00000  -0.00000  -0.00000   0.00000
   6   18999.2    526.3     -0.00048   0.00000   0.00000   0.00000
   7   20302.5    492.5     -0.01646  -0.15953   0.00006  -0.00000
   8   20329.5    491.9      0.01552  -0.00006  -0.15783  -0.00000
   9   22351.2    447.4      0.03009   0.00011   0.11715  -0.00000
  10   22361.7    447.2     -0.02889   0.12827  -0.00010  -0.00000
  11   23390.3    427.5      0.03619  -0.00003  -0.07247  -0.00000
  12   23416.8    427.0     -0.03690   0.07046  -0.00003   0.00000

-------------------------------------------------------------------
         CD SPECTRUM VIA TRANSITION VELOCITY DIPOLE MOMENTS        
-------------------------------------------------------------------
State  Energy     Wavelength     R         MX        MY        MZ   
       (cm-1)       (nm)     (1e40*cgs)   (au)      (au)      (au)  
-------------------------------------------------------------------
   1   15392.7    649.7      0.12121  -0.10225  -0.00017  -0.00000
   2   15403.2    649.2     -0.12126   0.00018  -0.09619   0.00000
   3   15947.7    627.0      0.00000  -0.00000   0.00000   0.01324
   4   16496.3    606.2     -0.00027  -0.00000   0.00000  -0.21913
   5   17087.5    585.2      0.00000  -0.00000  -0.00000   0.00000
   6   18999.2    526.3     -0.00033   0.00000   0.00000   0.00000
   7   20302.5    492.5     -0.00580  -0.15953   0.00006  -0.00000
   8   20329.5    491.9      0.00647  -0.00006  -0.15783  -0.00000
   9   22351.2    447.4     -0.04465   0.00011   0.11715  -0.00000
  10   22361.7    447.2      0.04389   0.12827  -0.00010  -0.00000
  11   23390.3    427.5     -0.02160  -0.00003  -0.07247  -0.00000
  12   23416.8    427.0      0.02193   0.07046  -0.00003   0.00000

Total run time:       49.283 sec

           *** ORCA-CIS/TD-DFT FINISHED WITHOUT ERROR ***

Maximum memory used throughout the entire CIS-calculation: 215.4 MB

-----------------------
CIS/TD-DFT TOTAL ENERGY
-----------------------

    E(SCF)  = -13123.980635272 Eh
    DE(CIS) =      0.070134319 Eh (Root  1)
    ----------------------------- ---------
    E(tot)  = -13123.910500953 Eh


-------------------------   --------------------
FINAL SINGLE POINT ENERGY    -13123.910500952943
-------------------------   --------------------


                            ***************************************
                            *     ORCA property calculations      *
                            ***************************************

                                    ---------------------
                                    Active property flags
                                    ---------------------
   (+) Dipole Moment


------------------------------------------------------------------------------
                       ORCA ELECTRIC PROPERTIES CALCULATION
------------------------------------------------------------------------------

Dipole Moment Calculation                       ... on
Quadrupole Moment Calculation                   ... off
Polarizability Calculation                      ... off
GBWName                                         ... cu8.gbw
Electron density                                ... cu8.scfp
The origin for moment calculation is the CENTER OF MASS  = ( 0.000000, -0.000000 -0.000000)

-------------
DIPOLE MOMENT
-------------
                                X             Y             Z
Electronic contribution:      0.00000      -0.00000       0.01482
Nuclear contribution   :      0.00000       0.00000       0.00000
                        -----------------------------------------
Total Dipole Moment    :      0.00000      -0.00000       0.01482
                        -----------------------------------------
Magnitude (a.u.)       :      0.01482
Magnitude (Debye)      :      0.03767



--------------------
Rotational spectrum 
--------------------
 
Rotational constants in cm-1:     0.011947     0.008639     0.008619 
Rotational constants in MHz :   358.150212   258.992997   258.380720 

 Dipole components along the rotational axes: 
x,y,z [a.u.] :     0.014820     0.000002    -0.000003 
x,y,z [Debye]:     0.037668     0.000004    -0.000008 

 

Timings for individual modules:

Sum of individual times         ...      129.511 sec (=   2.159 min)
GTO integral calculation        ...        1.248 sec (=   0.021 min)   1.0 %
SCF iterations                  ...       78.373 sec (=   1.306 min)  60.5 %
CIS module                      ...       49.890 sec (=   0.831 min)  38.5 %
                             ****ORCA TERMINATED NORMALLY****
TOTAL RUN TIME: 0 days 0 hours 2 minutes 10 seconds 490 msec
