
                                 *****************
                                 * O   R   C   A *
                                 *****************

                                            #,                                       
                                            ###                                      
                                            ####                                     
                                            #####                                    
                                            ######                                   
                                           ########,                                 
                                     ,,################,,,,,                         
                               ,,#################################,,                 
                          ,,##########################################,,             
                       ,#########################################, ''#####,          
                    ,#############################################,,   '####,        
                  ,##################################################,,,,####,       
                ,###########''''           ''''###############################       
              ,#####''   ,,,,##########,,,,          '''####'''          '####       
            ,##' ,,,,###########################,,,                        '##       
           ' ,,###''''                  '''############,,,                           
         ,,##''                                '''############,,,,        ,,,,,,###''
      ,#''                                            '''#######################'''  
     '                                                          ''''####''''         
             ,#######,   #######,   ,#######,      ##                                
            ,#'     '#,  ##    ##  ,#'     '#,    #''#        ######   ,####,        
            ##       ##  ##   ,#'  ##            #'  '#       #        #'  '#        
            ##       ##  #######   ##           ,######,      #####,   #    #        
            '#,     ,#'  ##    ##  '#,     ,#' ,#      #,         ##   #,  ,#        
             '#######'   ##     ##  '#######'  #'      '#     #####' # '####'        



                  #######################################################
                  #                        -***-                        #
                  #          Department of theory and spectroscopy      #
                  #    Directorship and core code : Frank Neese         #
                  #        Max Planck Institute fuer Kohlenforschung    #
                  #                Kaiser Wilhelm Platz 1               #
                  #                 D-45470 Muelheim/Ruhr               #
                  #                      Germany                        #
                  #                                                     #
                  #                  All rights reserved                #
                  #                        -***-                        #
                  #######################################################


                         Program Version 5.0.2 -  RELEASE  -


 With contributions from (in alphabetic order):
   Daniel Aravena         : Magnetic Suceptibility
   Michael Atanasov       : Ab Initio Ligand Field Theory (pilot matlab implementation)
   Alexander A. Auer      : GIAO ZORA, VPT2 properties, NMR spectrum
   Ute Becker             : Parallelization
   Giovanni Bistoni       : ED, misc. LED, open-shell LED, HFLD
   Martin Brehm           : Molecular dynamics
   Dmytro Bykov           : SCF Hessian
   Vijay G. Chilkuri      : MRCI spin determinant printing, contributions to CSF-ICE
   Dipayan Datta          : RHF DLPNO-CCSD density
   Achintya Kumar Dutta   : EOM-CC, STEOM-CC
   Dmitry Ganyushin       : Spin-Orbit,Spin-Spin,Magnetic field MRCI
   Miquel Garcia          : C-PCM and meta-GGA Hessian, CC/C-PCM, Gaussian charge scheme
   Yang Guo               : DLPNO-NEVPT2, F12-NEVPT2, CIM, IAO-localization
   Andreas Hansen         : Spin unrestricted coupled pair/coupled cluster methods
   Benjamin Helmich-Paris : MC-RPA, TRAH-SCF, COSX integrals
   Lee Huntington         : MR-EOM, pCC
   Robert Izsak           : Overlap fitted RIJCOSX, COSX-SCS-MP3, EOM
   Marcus Kettner         : VPT2
   Christian Kollmar      : KDIIS, OOCD, Brueckner-CCSD(T), CCSD density, CASPT2, CASPT2-K
   Simone Kossmann        : Meta GGA functionals, TD-DFT gradient, OOMP2, MP2 Hessian
   Martin Krupicka        : Initial AUTO-CI
   Lucas Lang             : DCDCAS
   Marvin Lechner         : AUTO-CI (C++ implementation), FIC-MRCC
   Dagmar Lenk            : GEPOL surface, SMD
   Dimitrios Liakos       : Extrapolation schemes; Compound Job, initial MDCI parallelization
   Dimitrios Manganas     : Further ROCIS development; embedding schemes
   Dimitrios Pantazis     : SARC Basis sets
   Anastasios Papadopoulos: AUTO-CI, single reference methods and gradients
   Taras Petrenko         : DFT Hessian,TD-DFT gradient, ASA, ECA, R-Raman, ABS, FL, XAS/XES, NRVS
   Peter Pinski           : DLPNO-MP2, DLPNO-MP2 Gradient
   Christoph Reimann      : Effective Core Potentials
   Marius Retegan         : Local ZFS, SOC
   Christoph Riplinger    : Optimizer, TS searches, QM/MM, DLPNO-CCSD(T), (RO)-DLPNO pert. Triples
   Tobias Risthaus        : Range-separated hybrids, TD-DFT gradient, RPA, STAB
   Michael Roemelt        : Original ROCIS implementation
   Masaaki Saitow         : Open-shell DLPNO-CCSD energy and density
   Barbara Sandhoefer     : DKH picture change effects
   Avijit Sen             : IP-ROCIS
   Kantharuban Sivalingam : CASSCF convergence, NEVPT2, FIC-MRCI
   Bernardo de Souza      : ESD, SOC TD-DFT
   Georgi Stoychev        : AutoAux, RI-MP2 NMR, DLPNO-MP2 response
   Willem Van den Heuvel  : Paramagnetic NMR
   Boris Wezisla          : Elementary symmetry handling
   Frank Wennmohs         : Technical directorship


 We gratefully acknowledge several colleagues who have allowed us to
 interface, adapt or use parts of their codes:
   Stefan Grimme, W. Hujo, H. Kruse, P. Pracht,  : VdW corrections, initial TS optimization,
                  C. Bannwarth, S. Ehlert          DFT functionals, gCP, sTDA/sTD-DF
   Ed Valeev, F. Pavosevic, A. Kumar             : LibInt (2-el integral package), F12 methods
   Garnet Chan, S. Sharma, J. Yang, R. Olivares  : DMRG
   Ulf Ekstrom                                   : XCFun DFT Library
   Mihaly Kallay                                 : mrcc  (arbitrary order and MRCC methods)
   Jiri Pittner, Ondrej Demel                    : Mk-CCSD
   Frank Weinhold                                : gennbo (NPA and NBO analysis)
   Christopher J. Cramer and Donald G. Truhlar   : smd solvation model
   Lars Goerigk                                  : TD-DFT with DH, B97 family of functionals
   V. Asgeirsson, H. Jonsson                     : NEB implementation
   FAccTs GmbH                                   : IRC, NEB, NEB-TS, DLPNO-Multilevel, CI-OPT
                                                   MM, QMMM, 2- and 3-layer-ONIOM, Crystal-QMMM,
                                                   LR-CPCM, SF, NACMEs, symmetry and pop. for TD-DFT,
                                                   nearIR, NL-DFT gradient (VV10), updates on ESD,
                                                   ML-optimized integration grids
   S Lehtola, MJT Oliveira, MAL Marques          : LibXC Library
   Liviu Ungur et al                             : ANISO software


 Your calculation uses the libint2 library for the computation of 2-el integrals
 For citations please refer to: http://libint.valeyev.net

 Your ORCA version has been built with support for libXC version: 5.1.0
 For citations please refer to: https://tddft.org/programs/libxc/

 This ORCA versions uses:
   CBLAS   interface :  Fast vector & matrix operations
   LAPACKE interface :  Fast linear algebra routines
   SCALAPACK package :  Parallel linear algebra routines
   Shared memory     :  Shared parallel matrices
   BLAS/LAPACK       :  OpenBLAS 0.3.15  USE64BITINT DYNAMIC_ARCH NO_AFFINITY Haswell SINGLE_THREADED
        Core in use  :  Haswell
   Copyright (c) 2011-2014, The OpenBLAS Project


XCFun DFT library Copyright 2009-2010 Ulf Ekstrom and contributors.
See http://admol.org/xcfun for more information.
This is free software; see the source code for copying conditions.
There is ABSOLUTELY NO WARRANTY; not even for MERCHANTABILITY or FITNESS FOR A PARTICULAR PURPOSE.
For details see the documentation.
Scientific users of this library should cite U. Ekstrom, L. Visscher, R. Bast, A. J. Thorvaldsen and K. Ruud;
J.Chem.Theor.Comp. 2010, DOI: 10.1021/ct100117s
XCFun Version 0.99 

================================================================================

----- Orbital basis set information -----
Your calculation utilizes the basis: def2-TZVP
   F. Weigend and R. Ahlrichs, Phys. Chem. Chem. Phys. 7, 3297 (2005).

----- AuxJ basis set information -----
Your calculation utilizes the auxiliary basis: def2/J
   F. Weigend, Phys. Chem. Chem. Phys. 8, 1057 (2006).

================================================================================
                                        WARNINGS
                       Please study these warnings very carefully!
================================================================================


WARNING: your system is open-shell and RHF/RKS was chosen
  ===> : WILL SWITCH to UHF/UKS

INFO   : Checking CIS options ...

WARNING: Minnesota functionals are quite sensitive to the integration grid.
         see SE Wheeler, KN Houk, JCTC 2010, 6, 395,
             N Mardirossian, M Head-Gordon, JCTC 2016, 12, 4303.
         DEFGRID3 seems to be a minimum grid for reliable results with these functionals!
  ===> : Please increase the integration grid!


WARNING: CIS/ROCIS methods need fully converged wavefunctions
  ===> : Setting SCFConvForced true
         You can overwrite this default with %scf ConvForced false 


INFO   : the flag for use of the SHARK integral package has been found!

================================================================================
                                       INPUT FILE
================================================================================
NAME = ex.inp
|  1> ! M062X TightSCF def2-TZVP slowconv PModel cpcm(water) 
|  2> 
|  3> %tddft
|  4>  nroots 12
|  5>  maxdim 60
|  6>  triplets false
|  7> end
|  8> 
|  9> %output
| 10> Print[ P_Basis ] 2
| 11> Print[ P_MOs ] 1
| 12> end
| 13> 
| 14> %pal nprocs=16 end
| 15> %base "cu0"
| 16> *xyz 0 2
| 17>   Cu     2.794678854485   -2.805966643718    0.031721560938
| 18> *
| 19> 
| 20>                          ****END OF INPUT****
================================================================================

                       ****************************
                       * Single Point Calculation *
                       ****************************

---------------------------------
CARTESIAN COORDINATES (ANGSTROEM)
---------------------------------
  Cu     2.794679   -2.805967    0.031722

----------------------------
CARTESIAN COORDINATES (A.U.)
----------------------------
  NO LB      ZA    FRAG     MASS         X           Y           Z
   0 Cu   29.0000    0    63.550    5.281178   -5.302508    0.059945

--------------------------------
INTERNAL COORDINATES (ANGSTROEM)
--------------------------------
 Cu     0   0   0     0.000000000000     0.00000000     0.00000000

---------------------------
INTERNAL COORDINATES (A.U.)
---------------------------
 Cu     0   0   0     0.000000000000     0.00000000     0.00000000

---------------------
BASIS SET INFORMATION
---------------------
There are 1 groups of distinct atoms

 Group   1 Type Cu  : 17s11p7d1f contracted to 6s4p4d1f pattern {842111/6311/4111/1}

Atom   0Cu   basis set group =>   1

-------------------------
BASIS SET IN INPUT FORMAT
-------------------------

 # Basis set for element : Cu
 NewGTO Cu
 S 8 
   1  377518.7992300000      0.0002387916
   2   56589.9843110000      0.0018515678
   3   12878.7117060000      0.0096297932
   4    3645.3752143000      0.0391615178
   5    1187.0072945000      0.1276025095
   6     426.4642190200      0.3034008838
   7     165.7066016400      0.4347519283
   8      65.5989427070      0.2293079504
 S 4 
   1     414.4126581100     -0.0249866525
   2     128.3205603900     -0.1186119709
   3      20.6220897500      0.5598271484
   4       8.7821226045      0.5288643080
 S 2 
   1      13.7413720060     -0.3699327832
   2       2.2431246833      1.1676087386
 S 1 
   1       0.8937054908      1.0000000000
 S 1 
   1       0.1083669953      1.0000000000
 S 1 
   1       0.0388061781      1.0000000000
 P 6 
   1    2034.7596692000      0.0026776186
   2     481.9046810600      0.0217785896
   3     154.6748296300      0.1026336485
   4      57.7405769690      0.2966548980
   5      23.0990528110      0.4791122399
   6       9.3882478591      0.2770928296
 P 3 
   1      37.5961712100     -0.0207301505
   2       5.1240690810      0.3927002052
   3       2.0119996085      0.6706714235
 P 1 
   1       0.7386068600      1.0000000000
 D 4 
   1      74.1294606370      0.0222258533
   2      21.3598425870      0.1340497188
   3       7.4995240537      0.3966245361
   4       2.7601394169      0.6247541952
 D 1 
   1       0.9536206124      1.0000000000
 D 1 
   1       0.2842086252      1.0000000000
 P 1 
   1       0.1550650000      1.0000000000
 D 1 
   1       0.0850000000      1.0000000000
 F 1 
   1       2.2330000000      1.0000000000
  end;

---------------------------------
AUXILIARY/J BASIS SET INFORMATION
---------------------------------
There are 1 groups of distinct atoms

 Group   1 Type Cu  : 19s5p5d3f3g contracted to 8s5p4d3f3g pattern {121111111/11111/2111/111/111}

Atom   0Cu   basis set group =>   1

-------------------------------------
AUXILIARY/J BASIS SET IN INPUT FORMAT
-------------------------------------

 # Auxiliary/J basis set for element : Cu
 NewAuxJGTO Cu
 S 12 
   1   22760.1575320000      0.0282764819
   2    7272.8802874000      0.0691320820
   3    2725.0817134000      0.1660481474
   4    1480.3337422000      0.1462232042
   5     870.7845298000      0.2312796482
   6     533.0245964000      0.1980761869
   7     313.5438715000      0.1178844884
   8     112.8979167000     -0.0569562562
   9      66.4105374000      0.1110331733
  10      39.0650209000      0.2298430798
  11      22.9794234000      0.1324785707
  12      13.5173075000     -0.0781371994
 S 1 
   1       4.3193796000      1.0000000000
 S 1 
   1       2.5408114000      1.0000000000
 S 1 
   1       1.5552814000      1.0000000000
 S 1 
   1       0.9148714000      1.0000000000
 S 1 
   1       0.3294183000      1.0000000000
 S 1 
   1       0.1139855000      1.0000000000
 S 1 
   1       0.0670503000     -1.0000000000
 P 1 
   1      10.4327236000      1.0000000000
 P 1 
   1       4.0251086000     -1.0000000000
 P 1 
   1       1.5534382000      1.0000000000
 P 1 
   1       0.5996423000      1.0000000000
 P 1 
   1       0.2314823000     -1.0000000000
 D 2 
   1      19.6140080000     -1.0547292095
   2       7.2975860000      1.3124309240
 D 1 
   1       2.7500946000     -1.0000000000
 D 1 
   1       1.0444408000     -1.0000000000
 D 1 
   1       0.3976934000      1.0000000000
 F 1 
   1       5.8169042000     -1.0000000000
 F 1 
   1       0.7156542000      1.0000000000
 F 1 
   1       0.0892019000     -1.0000000000
 G 1 
   1      15.3794722000      1.0000000000
 G 1 
   1       4.2631148000      1.0000000000
 G 1 
   1       1.1926492000     -1.0000000000
  end;



           ************************************************************
           *        Program running with 16 parallel MPI-processes    *
           *              working on a common directory               *
           ************************************************************
------------------------------------------------------------------------------
                           ORCA GTO INTEGRAL CALCULATION
                           -- RI-GTO INTEGRALS CHOSEN --
------------------------------------------------------------------------------
------------------------------------------------------------------------------
                   ___                                                        
                  /   \      - P O W E R E D   B Y -                         
                 /     \                                                     
                 |  |  |   _    _      __       _____    __    __             
                 |  |  |  | |  | |    /  \     |  _  \  |  |  /  |          
                  \  \/   | |  | |   /    \    | | | |  |  | /  /          
                 / \  \   | |__| |  /  /\  \   | |_| |  |  |/  /          
                |  |  |   |  __  | /  /__\  \  |    /   |      \           
                |  |  |   | |  | | |   __   |  |    \   |  |\   \          
                \     /   | |  | | |  |  |  |  | |\  \  |  | \   \       
                 \___/    |_|  |_| |__|  |__|  |_| \__\ |__|  \__/        
                                                                              
                      - O R C A' S   B I G   F R I E N D -                    
                                      &                                       
                       - I N T E G R A L  F E E D E R -                       
                                                                              
 v1 FN, 2020, v2 2021                                                         
------------------------------------------------------------------------------


Reading SHARK input file cu0.SHARKINP.tmp ... ok
----------------------
SHARK INTEGRAL PACKAGE
----------------------

Number of atoms                             ...      1
Number of basis functions                   ...     45
Number of shells                            ...     15
Maximum angular momentum                    ...      3
Integral batch strategy                     ... SHARK/LIBINT Hybrid
RI-J (if used) integral strategy            ... SPLIT-RIJ (Revised 2003 algorithm where possible)
Printlevel                                  ...      1
Contraction scheme used                     ... SEGMENTED contraction
Coulomb Range Separation                    ... NOT USED
Exchange Range Separation                   ... NOT USED
Finite Nucleus Model                        ... NOT USED
Auxiliary Coulomb fitting basis             ... AVAILABLE
   # of basis functions in Aux-J            ...     91
   # of shells in Aux-J                     ...     23
   Maximum angular momentum in Aux-J        ...      4
Auxiliary J/K fitting basis                 ... NOT available
Auxiliary Correlation fitting basis         ... NOT available
Auxiliary 'external' fitting basis          ... NOT available
Integral threshold                          ...     2.500000e-11
Primitive cut-off                           ...     2.500000e-12
Primitive pair pre-selection threshold      ...     2.500000e-12

Calculating pre-screening integrals         ... done (  0.1 sec) Dimension = 15
Organizing shell pair data                  ... done (  0.0 sec)
Shell pair information
Total number of shell pairs                 ...       120
Shell pairs after pre-screening             ...       120
Total number of primitive shell pairs       ...       725
Primitive shell pairs kept                  ...       725
          la=0 lb=0:     21 shell pairs
          la=1 lb=0:     24 shell pairs
          la=1 lb=1:     10 shell pairs
          la=2 lb=0:     24 shell pairs
          la=2 lb=1:     16 shell pairs
          la=2 lb=2:     10 shell pairs
          la=3 lb=0:      6 shell pairs
          la=3 lb=1:      4 shell pairs
          la=3 lb=2:      4 shell pairs
          la=3 lb=3:      1 shell pairs

Calculating one electron integrals          ... done (  0.0 sec)
Calculating RI/J V-Matrix + Cholesky decomp.... done (  0.0 sec)
Calculating Nuclear repulsion               ... done (  0.0 sec) ENN=      0.000000000000 Eh

SHARK setup successfully completed in   0.2 seconds

Maximum memory used throughout the entire GTOINT-calculation: 17.3 MB


           ************************************************************
           *        Program running with 16 parallel MPI-processes    *
           *              working on a common directory               *
           ************************************************************
-------------------------------------------------------------------------------
                                 ORCA SCF
-------------------------------------------------------------------------------

------------
SCF SETTINGS
------------
Hamiltonian:
 Density Functional     Method          .... DFT(GTOs)
 Exchange Functional    Exchange        .... M062X
 Correlation Functional Correlation     .... M062X
 Gradients option       PostSCFGGA      .... off
 Hybrid DFT is turned on
   Fraction HF Exchange ScalHFX         ....  0.540000
   Scaling of DF-GGA-X  ScalDFX         ....  0.460000
   Scaling of DF-GGA-C  ScalDFC         ....  1.000000
   Scaling of DF-LDA-C  ScalLDAC        ....  1.000000
   Perturbative correction              ....  0.000000
   Density functional embedding theory  .... OFF
 RI-approximation to the Coulomb term is turned on
   Number of AuxJ basis functions       .... 91
   RIJ-COSX (HFX calculated with COS-X)).... on


General Settings:
 Integral files         IntName         .... cu0
 Hartree-Fock type      HFTyp           .... UHF
 Total Charge           Charge          ....    0
 Multiplicity           Mult            ....    2
 Number of Electrons    NEL             ....   29
 Basis Dimension        Dim             ....   45
 Nuclear Repulsion      ENuc            ....      0.0000000000 Eh

Convergence Acceleration:
 DIIS                   CNVDIIS         .... on
   Start iteration      DIISMaxIt       ....     0
   Startup error        DIISStart       ....  0.200000
   # of expansion vecs  DIISMaxEq       ....     5
   Bias factor          DIISBfac        ....   1.050
   Max. coefficient     DIISMaxC        ....  10.000
 Trust-Rad. Augm. Hess. CNVTRAH         .... auto
   Auto Start mean grad. ratio tolernc. ....  1.125000
   Auto Start start iteration           ....    20
   Auto Start num. interpolation iter.  ....    10
   Max. Number of Micro iterations      ....    16
   Max. Number of Macro iterations      .... Maxiter - #DIIS iter
   Number of Davidson start vectors     ....     2
   Converg. threshold I  (grad. norm)   ....   1.000e-05
   Converg. threshold II (energy diff.) ....   1.000e-08
   Grad. Scal. Fac. for Micro threshold ....   0.100
   Minimum threshold for Micro iter.    ....   0.010
   NR start threshold (gradient norm)   ....   0.001
   Initial trust radius                 ....   0.400
   Minimum AH scaling param. (alpha)    ....   1.000
   Maximum AH scaling param. (alpha)    .... 1000.000
   Orbital update algorithm             .... Taylor
   White noise on init. David. guess    .... on
   Maximum white noise                  ....   0.010
   Quad. conv. algorithm                .... NR
 SOSCF                  CNVSOSCF        .... off
 Level Shifting         CNVShift        .... on
   Level shift para.    LevelShift      ....    0.2500
   Turn off err/grad.   ShiftErr        ....    0.0000
 Zerner damping         CNVZerner       .... off
 Static damping         CNVDamp         .... on
   Fraction old density DampFac         ....    0.8500
   Max. Damping (<1)    DampMax         ....    0.9800
   Min. Damping (>=0)   DampMin         ....    0.0000
   Turn off err/grad.   DampErr         ....    0.0300
 Fernandez-Rico         CNVRico         .... off

SCF Procedure:
 Maximum # iterations   MaxIter         ....   125
 SCF integral mode      SCFMode         .... Direct
   Integral package                     .... SHARK and LIBINT hybrid scheme
 Reset frequency        DirectResetFreq ....    20
 Integral Threshold     Thresh          ....  2.500e-11 Eh
 Primitive CutOff       TCut            ....  2.500e-12 Eh

Convergence Tolerance:
 Convergence Check Mode ConvCheckMode   .... Total+1el-Energy
 Convergence forced     ConvForced      .... 1
 Energy Change          TolE            ....  1.000e-08 Eh
 1-El. energy change                    ....  1.000e-05 Eh
 DIIS Error             TolErr          ....  5.000e-07


Diagonalization of the overlap matrix:
Smallest eigenvalue                        ... 7.073e-02
Time for diagonalization                   ...    0.001 sec
Threshold for overlap eigenvalues          ... 1.000e-08
Number of eigenvalues below threshold      ... 0
Time for construction of square roots      ...    0.001 sec
Total time needed                          ...    0.002 sec

Time for model grid setup =    0.040 sec

------------------------------
INITIAL GUESS: MODEL POTENTIAL
------------------------------
Loading Hartree-Fock densities                     ... done
Calculating cut-offs                               ... done
Initializing the effective Hamiltonian             ... done
Setting up the integral package (SHARK)            ... done
Starting the Coulomb interaction                   ... done (   0.0 sec)
Reading the grid                                   ... done
Mapping shells                                     ... done
Starting the XC term evaluation                    ... done (   0.0 sec)
  promolecular density results
     # of electrons  =     29.000002311
     EX              =    -65.435521160
     EC              =     -1.335840562
     EX+EC           =    -66.771361722
Transforming the Hamiltonian                       ... done (   0.0 sec)
Diagonalizing the Hamiltonian                      ... done (   0.0 sec)
Back transforming the eigenvectors                 ... done (   0.0 sec)
Now organizing SCF variables                       ... done
                      ------------------
                      INITIAL GUESS DONE (   0.0 sec)
                      ------------------
-------------------
DFT GRID GENERATION
-------------------

General Integration Accuracy     IntAcc      ... 4.388
Radial Grid Type                 RadialGrid  ... OptM3 with GC (2021)
Angular Grid (max. ang.)         AngularGrid ... 4 (Lebedev-302)
Angular grid pruning method      GridPruning ... 4 (adaptive)
Weight generation scheme         WeightScheme... Becke
Basis function cutoff            BFCut       ... 1.0000e-11
Integration weight cutoff        WCut        ... 1.0000e-14
Angular grids for H and He will be reduced by one unit
Partially contracted basis set               ... off
Rotationally invariant grid construction     ... off

Total number of grid points                  ...    11336
Total number of batches                      ...      178
Average number of points per batch           ...       63
Average number of grid points per atom       ...    11336
Time for grid setup =    0.158 sec

--------------------
COSX GRID GENERATION
--------------------

GRIDX 1
-------
General Integration Accuracy     IntAcc      ... 3.816
Radial Grid Type                 RadialGrid  ... OptM3 with GC (2021)
Angular Grid (max. ang.)         AngularGrid ... 1 (Lebedev-50)
Angular grid pruning method      GridPruning ... 4 (adaptive)
Weight generation scheme         WeightScheme... Becke
Basis function cutoff            BFCut       ... 1.0000e-11
Integration weight cutoff        WCut        ... 1.0000e-14
Angular grids for H and He will be reduced by one unit
Partially contracted basis set               ... on
Rotationally invariant grid construction     ... off

Total number of grid points                  ...     1244
Total number of batches                      ...       20
Average number of points per batch           ...       62
Average number of grid points per atom       ...     1244
UseSFitting                                  ... on

GRIDX 2
-------
General Integration Accuracy     IntAcc      ... 4.020
Radial Grid Type                 RadialGrid  ... OptM3 with GC (2021)
Angular Grid (max. ang.)         AngularGrid ... 2 (Lebedev-110)
Angular grid pruning method      GridPruning ... 4 (adaptive)
Weight generation scheme         WeightScheme... Becke
Basis function cutoff            BFCut       ... 1.0000e-11
Integration weight cutoff        WCut        ... 1.0000e-14
Angular grids for H and He will be reduced by one unit
Partially contracted basis set               ... on
Rotationally invariant grid construction     ... off

Total number of grid points                  ...     2712
Total number of batches                      ...       43
Average number of points per batch           ...       63
Average number of grid points per atom       ...     2712
UseSFitting                                  ... on

GRIDX 3
-------
General Integration Accuracy     IntAcc      ... 4.338
Radial Grid Type                 RadialGrid  ... OptM3 with GC (2021)
Angular Grid (max. ang.)         AngularGrid ... 3 (Lebedev-194)
Angular grid pruning method      GridPruning ... 4 (adaptive)
Weight generation scheme         WeightScheme... Becke
Basis function cutoff            BFCut       ... 1.0000e-11
Integration weight cutoff        WCut        ... 1.0000e-14
Angular grids for H and He will be reduced by one unit
Partially contracted basis set               ... on
Rotationally invariant grid construction     ... off

Total number of grid points                  ...     6274
Total number of batches                      ...       99
Average number of points per batch           ...       63
Average number of grid points per atom       ...     6274
UseSFitting                                  ... on

Time for X-Grid setup             =    0.065 sec


--------------------
CPCM SOLVATION MODEL
--------------------
CPCM parameters:
  Epsilon                                         ...      80.4000
  Refrac                                          ...       1.3300
  Rsolv                                           ...       1.3000
  Surface type                                    ... GAUSSIAN VDW
  Epsilon function type                           ...         CPCM
Radii:
 Radius for Cu used is    3.1747 Bohr (=   1.6800 Ang.)
Calculating surface                               ...        done! (  0.0s)
GEPOL surface points                              ...          110
GEPOL Volume                                      ...     134.0334
GEPOL Surface-area                                ...     126.6561
Calculating surface distance matrix               ...        done! (  0.0s)
Performing Cholesky decomposition & store         ...        done! (  0.0s)
Overall time for CPCM initialization              ...                 0.0s
--------------
SCF ITERATIONS
--------------
ITER       Energy         Delta-E        Max-DP      RMS-DP      [F,P]     Damp
               ***  Starting incremental Fock matrix formation  ***
  0  -1640.4058836432   0.000000000000 0.02941841  0.00082902  0.2003467 0.8500
  1  -1640.4181581697  -0.012274526576 0.03740415  0.00082193  0.1177747 0.8500
                               ***Turning on DIIS***
  2  -1640.4239480220  -0.005789852279 0.03589853  0.00070772  0.0596199 0.8500
  3  -1640.4273916286  -0.003443606547 0.21313077  0.00396153  0.0293785 0.0000
  4  -1640.4448344305  -0.017442801939 0.00389165  0.00008293  0.0300061 0.8500
  5  -1640.4450576001  -0.000223169586 0.03651068  0.00074737  0.0252522 0.0000
  6  -1640.4459473322  -0.000889732112 0.02278651  0.00044515  0.0071405 0.0000
  7  -1640.4460819334  -0.000134601180 0.01639306  0.00032132  0.0018482 0.0000
  8  -1640.4461211468  -0.000039213377 0.01166148  0.00023053  0.0011071 0.0000
  9  -1640.4461388384  -0.000017691687 0.00684326  0.00013614  0.0005833 0.0000
               *** Restarting incremental Fock matrix formation ***
                                   *** Resetting DIIS ***
 10  -1640.4455392485   0.000599589950 0.00218795  0.00012802  0.0265491 0.0000
 11  -1640.4461198240  -0.000580575520 0.00134213  0.00003971  0.0034537 0.0000
 12  -1640.4461340608  -0.000014236755 0.00081927  0.00001998  0.0005759 0.0000
 13  -1640.4461350678  -0.000001006991 0.00050511  0.00001270  0.0002435 0.0000
 14  -1640.4461354236  -0.000000355887 0.00034849  0.00000924  0.0001981 0.0000
 15  -1640.4461356510  -0.000000227338 0.00029961  0.00000864  0.0001117 0.0000
 16  -1640.4461357878  -0.000000136842 0.00017281  0.00000560  0.0000693 0.0000
 17  -1640.4461358426  -0.000000054781 0.00008226  0.00000291  0.0000386 0.0000
 18  -1640.4461358595  -0.000000016906 0.00005111  0.00000173  0.0000207 0.0000
 19  -1640.4461358648  -0.000000005286 0.00002316  0.00000074  0.0000097 0.0000
 20  -1640.4461358660  -0.000000001169 0.00001158  0.00000037  0.0000046 0.0000
 21  -1640.4461358663  -0.000000000295 0.00000546  0.00000018  0.0000020 0.0000
 22  -1640.4461358654   0.000000000879 0.00000228  0.00000008  0.0000010 0.0000
                 **** Energy Check signals convergence ****

               *****************************************************
               *                     SUCCESS                       *
               *           SCF CONVERGED AFTER  23 CYCLES          *
               *****************************************************

Old exchange energy                            =    -35.465776429 Eh
New exchange energy                            =    -35.465782352 Eh
Exchange energy change after final integration =     -0.000005922 Eh
Total energy after final integration           =  -1640.446141789 Eh
Final COS-X integration done in                =     0.071 sec

----------------
TOTAL SCF ENERGY
----------------

Total Energy       :        -1640.44614179 Eh          -44638.80891 eV

Components:
Nuclear Repulsion  :            0.00000000 Eh               0.00000 eV
Electronic Energy  :        -1640.44614179 Eh          -44638.80891 eV
One Electron Energy:        -2288.45822310 Eh          -62272.11410 eV
Two Electron Energy:          648.01208131 Eh           17633.30519 eV
Max COSX asymmetry :            0.00000019 Eh               0.00001 eV
CPCM Dielectric    :           -0.00240592 Eh              -0.06547 eV

Virial components:
Potential Energy   :        -3278.69686274 Eh          -89217.87738 eV
Kinetic Energy     :         1638.25072095 Eh           44579.06847 eV
Virial Ratio       :            2.00134010


DFT components:
N(Alpha)           :       15.000000133988 electrons
N(Beta)            :       14.000000008478 electrons
N(Total)           :       29.000000142466 electrons
E(XC)              :      -31.742923812725 Eh       
DFET-embed. en.    :        0.000000000000 Eh       
CPCM Solvation Model Properties:
Surface-charge          :           -0.12437350
Charge-correction       :            0.00240592 Eh               0.06547 eV
Free-energy (cav+disp)  :  This term is not implemented in the current solvation scheme

---------------
SCF CONVERGENCE
---------------

  Last Energy change         ...   -1.3006e-09  Tolerance :   1.0000e-08
  Last MAX-Density change    ...    0.0000e+00  Tolerance :   1.0000e-07
  Last RMS-Density change    ...    0.0000e+00  Tolerance :   5.0000e-09
  Last DIIS Error            ...    8.0975e-07  Tolerance :   5.0000e-07

             **** THE GBW FILE WAS UPDATED (cu0.gbw) ****
             **** DENSITY cu0.scfp WAS UPDATED ****
             **** ENERGY FILE WAS UPDATED (cu0.en.tmp) ****
----------------------
UHF SPIN CONTAMINATION
----------------------

Warning: in a DFT calculation there is little theoretical justification to 
         calculate <S**2> as in Hartree-Fock theory. We will do it anyways
         but you should keep in mind that the values have only limited relevance

Expectation value of <S**2>     :     0.750905
Ideal value S*(S+1) for S=0.5   :     0.750000
Deviation                       :     0.000905

             **** THE GBW FILE WAS UPDATED (cu0.gbw) ****
             **** DENSITY cu0.scfp WAS UPDATED ****
----------------
ORBITAL ENERGIES
----------------
                 SPIN UP ORBITALS
  NO   OCC          E(Eh)            E(eV) 
   0   1.0000    -324.985679     -8843.3099 
   1   1.0000     -39.379279     -1071.5647 
   2   1.0000     -34.584126      -941.0819 
   3   1.0000     -34.584126      -941.0819 
   4   1.0000     -34.584126      -941.0819 
   5   1.0000      -4.453992      -121.1993 
   6   1.0000      -2.930670       -79.7476 
   7   1.0000      -2.930670       -79.7476 
   8   1.0000      -2.930669       -79.7476 
   9   1.0000      -0.334258        -9.0956 
  10   1.0000      -0.334258        -9.0956 
  11   1.0000      -0.334258        -9.0956 
  12   1.0000      -0.334258        -9.0956 
  13   1.0000      -0.334258        -9.0956 
  14   1.0000      -0.176891        -4.8134 
  15   0.0000       0.155539         4.2324 
  16   0.0000       0.155539         4.2324 
  17   0.0000       0.155539         4.2324 
  18   0.0000       0.173412         4.7188 
  19   0.0000       0.246740         6.7141 
  20   0.0000       0.246740         6.7141 
  21   0.0000       0.246740         6.7141 
  22   0.0000       0.246740         6.7141 
  23   0.0000       0.246740         6.7141 
  24   0.0000       0.965611        26.2756 
  25   0.0000       0.965611        26.2756 
  26   0.0000       0.965611        26.2756 
  27   0.0000       0.965611        26.2756 
  28   0.0000       0.965612        26.2756 
  29   0.0000       2.232123        60.7392 
  30   0.0000       2.232123        60.7392 
  31   0.0000       2.232123        60.7392 
  32   0.0000       3.076967        83.7285 
  33   0.0000       3.829699       104.2114 
  34   0.0000       3.829699       104.2114 
  35   0.0000       3.829699       104.2114 
  36   0.0000       3.829699       104.2114 
  37   0.0000       3.829699       104.2114 
  38   0.0000       5.966087       162.3455 
  39   0.0000       5.966087       162.3455 
  40   0.0000       5.966087       162.3455 
  41   0.0000       5.966088       162.3455 
  42   0.0000       5.966088       162.3455 
  43   0.0000       5.966088       162.3455 
  44   0.0000       5.966088       162.3455 

                 SPIN DOWN ORBITALS
  NO   OCC          E(Eh)            E(eV) 
   0   1.0000    -324.984383     -8843.2747 
   1   1.0000     -39.377165     -1071.5071 
   2   1.0000     -34.583326      -941.0601 
   3   1.0000     -34.583326      -941.0601 
   4   1.0000     -34.583326      -941.0601 
   5   1.0000      -4.448100      -121.0390 
   6   1.0000      -2.927508       -79.6615 
   7   1.0000      -2.927508       -79.6615 
   8   1.0000      -2.927508       -79.6615 
   9   1.0000      -0.330462        -8.9923 
  10   1.0000      -0.330462        -8.9923 
  11   1.0000      -0.330462        -8.9923 
  12   1.0000      -0.330462        -8.9923 
  13   1.0000      -0.330462        -8.9923 
  14   0.0000      -0.071514        -1.9460 
  15   0.0000       0.146397         3.9837 
  16   0.0000       0.146397         3.9837 
  17   0.0000       0.146397         3.9837 
  18   0.0000       0.146397         3.9837 
  19   0.0000       0.146397         3.9837 
  20   0.0000       0.158435         4.3112 
  21   0.0000       0.164472         4.4755 
  22   0.0000       0.164473         4.4755 
  23   0.0000       0.164473         4.4755 
  24   0.0000       0.957839        26.0641 
  25   0.0000       0.957840        26.0641 
  26   0.0000       0.957840        26.0642 
  27   0.0000       0.957841        26.0642 
  28   0.0000       0.957841        26.0642 
  29   0.0000       2.245085        61.0919 
  30   0.0000       2.245086        61.0919 
  31   0.0000       2.245086        61.0919 
  32   0.0000       3.100658        84.3732 
  33   0.0000       3.851439       104.8030 
  34   0.0000       3.851439       104.8030 
  35   0.0000       3.851439       104.8030 
  36   0.0000       3.851439       104.8030 
  37   0.0000       3.851439       104.8030 
  38   0.0000       5.969305       162.4330 
  39   0.0000       5.969305       162.4330 
  40   0.0000       5.969305       162.4330 
  41   0.0000       5.969305       162.4330 
  42   0.0000       5.969305       162.4330 
  43   0.0000       5.969305       162.4330 
  44   0.0000       5.969305       162.4330 
------------------
MOLECULAR ORBITALS
------------------
                      0         1         2         3         4         5   
                 -324.98568 -39.37928 -34.58413 -34.58413 -34.58413  -4.45399
                   1.00000   1.00000   1.00000   1.00000   1.00000   1.00000
                  --------  --------  --------  --------  --------  --------
  0Cu  1s        -0.997580 -0.319411 -0.000000 -0.000000 -0.000000  0.119524
  0Cu  2s        -0.007513  1.037243  0.000000  0.000000  0.000000 -0.463851
  0Cu  3s         0.002725  0.041555 -0.000000 -0.000000 -0.000000  0.641221
  0Cu  4s        -0.001665 -0.013677  0.000000  0.000000  0.000000  0.471713
  0Cu  5s         0.000419  0.003010 -0.000000 -0.000000 -0.000000  0.010828
  0Cu  6s        -0.000204 -0.001447  0.000000  0.000000  0.000000 -0.003964
  0Cu  1pz       -0.000000  0.000000 -0.664995  0.261661 -0.686963 -0.000000
  0Cu  1px        0.000000 -0.000000 -0.513734 -0.828000  0.181925  0.000000
  0Cu  1py        0.000000 -0.000000 -0.525796  0.478072  0.691078  0.000000
  0Cu  2pz        0.000000  0.000000 -0.015628  0.006149 -0.016144  0.000000
  0Cu  2px       -0.000000 -0.000000 -0.012073 -0.019459  0.004275 -0.000000
  0Cu  2py       -0.000000 -0.000000 -0.012357  0.011235  0.016241 -0.000000
  0Cu  3pz       -0.000000 -0.000000  0.003179 -0.001251  0.003284 -0.000000
  0Cu  3px        0.000000  0.000000  0.002456  0.003958 -0.000870  0.000000
  0Cu  3py        0.000000  0.000000  0.002513 -0.002285 -0.003303  0.000000
  0Cu  1dz2      -0.000000 -0.000000 -0.000000  0.000000 -0.000000 -0.000000
  0Cu  1dxz       0.000000  0.000000 -0.000000 -0.000000  0.000000  0.000000
  0Cu  1dyz       0.000000  0.000000  0.000000  0.000000  0.000000  0.000000
  0Cu  1dx2y2     0.000000  0.000000 -0.000000  0.000000  0.000000  0.000000
  0Cu  1dxy      -0.000000 -0.000000  0.000000  0.000000 -0.000000 -0.000000
  0Cu  2dz2       0.000000  0.000000  0.000000 -0.000000  0.000000  0.000000
  0Cu  2dxz      -0.000000 -0.000000  0.000000  0.000000 -0.000000 -0.000000
  0Cu  2dyz      -0.000000 -0.000000 -0.000000 -0.000000 -0.000000 -0.000000
  0Cu  2dx2y2    -0.000000 -0.000000  0.000000 -0.000000 -0.000000 -0.000000
  0Cu  2dxy       0.000000  0.000000 -0.000000 -0.000000  0.000000  0.000000
  0Cu  3dz2      -0.000000 -0.000000 -0.000000  0.000000 -0.000000  0.000000
  0Cu  3dxz       0.000000  0.000000 -0.000000 -0.000000  0.000000 -0.000000
  0Cu  3dyz       0.000000  0.000000  0.000000  0.000000  0.000000 -0.000000
  0Cu  3dx2y2     0.000000  0.000000 -0.000000  0.000000  0.000000 -0.000000
  0Cu  3dxy      -0.000000 -0.000000  0.000000  0.000000 -0.000000  0.000000
  0Cu  4pz        0.000000  0.000000 -0.000713  0.000280 -0.000736  0.000000
  0Cu  4px       -0.000000 -0.000000 -0.000550 -0.000887  0.000195 -0.000000
  0Cu  4py       -0.000000 -0.000000 -0.000563  0.000512  0.000741 -0.000000
  0Cu  4dz2       0.000000  0.000000  0.000000 -0.000000  0.000000  0.000000
  0Cu  4dxz       0.000000 -0.000000  0.000000  0.000000 -0.000000 -0.000000
  0Cu  4dyz      -0.000000 -0.000000 -0.000000 -0.000000 -0.000000 -0.000000
  0Cu  4dx2y2    -0.000000 -0.000000  0.000000 -0.000000 -0.000000 -0.000000
  0Cu  4dxy      -0.000000  0.000000 -0.000000 -0.000000  0.000000  0.000000
  0Cu  1f0       -0.000000 -0.000000  0.000000 -0.000000 -0.000000  0.000000
  0Cu  1f+1      -0.000000 -0.000000 -0.000000  0.000000 -0.000000  0.000000
  0Cu  1f-1      -0.000000 -0.000000 -0.000000  0.000000 -0.000000  0.000000
  0Cu  1f+2      -0.000000 -0.000000  0.000000 -0.000000 -0.000000  0.000000
  0Cu  1f-2       0.000000  0.000000 -0.000000 -0.000000  0.000000  0.000000
  0Cu  1f+3      -0.000000 -0.000000  0.000000  0.000000 -0.000000 -0.000000
  0Cu  1f-3      -0.000000 -0.000000  0.000000 -0.000000 -0.000000  0.000000
                      6         7         8         9        10        11   
                  -2.93067  -2.93067  -2.93067  -0.33426  -0.33426  -0.33426
                   1.00000   1.00000   1.00000   1.00000   1.00000   1.00000
                  --------  --------  --------  --------  --------  --------
  0Cu  1s         0.000000  0.000000  0.000000 -0.000000 -0.000000  0.000000
  0Cu  2s        -0.000000 -0.000000 -0.000000  0.000000  0.000000 -0.000000
  0Cu  3s        -0.000000 -0.000000 -0.000000 -0.000000 -0.000000  0.000000
  0Cu  4s         0.000000  0.000000  0.000000 -0.000000 -0.000000  0.000000
  0Cu  5s         0.000000  0.000000  0.000000  0.000000  0.000000 -0.000001
  0Cu  6s        -0.000000 -0.000000 -0.000000 -0.000000 -0.000000  0.000000
  0Cu  1pz        0.254912 -0.106684  0.263194  0.000000 -0.000000  0.000000
  0Cu  1px        0.205608  0.313293 -0.072147  0.000000 -0.000000 -0.000000
  0Cu  1py        0.195903 -0.189996 -0.266751  0.000000  0.000000 -0.000000
  0Cu  2pz       -0.586470  0.245446 -0.605525 -0.000000  0.000000 -0.000000
  0Cu  2px       -0.473038 -0.720788  0.165986 -0.000000  0.000000  0.000000
  0Cu  2py       -0.450710  0.437119  0.613710 -0.000000 -0.000000  0.000000
  0Cu  3pz       -0.173531  0.072625 -0.179170 -0.000000 -0.000000  0.000000
  0Cu  3px       -0.139968 -0.213275  0.049114  0.000000 -0.000000 -0.000000
  0Cu  3py       -0.133361  0.129340  0.181591  0.000000  0.000000 -0.000000
  0Cu  1dz2      -0.000000  0.000000 -0.000000 -0.087539 -0.237063  0.020732
  0Cu  1dxz      -0.000000 -0.000000  0.000000 -0.456523  0.099459  0.432666
  0Cu  1dyz       0.000000  0.000000  0.000000 -0.016407 -0.394828  0.171538
  0Cu  1dx2y2    -0.000000  0.000000  0.000000 -0.043544  0.436274 -0.017519
  0Cu  1dxy       0.000000  0.000000 -0.000000 -0.448273 -0.082923 -0.449254
  0Cu  2dz2       0.000000 -0.000000  0.000000 -0.051588 -0.139703  0.012218
  0Cu  2dxz       0.000000  0.000000 -0.000000 -0.269034  0.058612  0.254974
  0Cu  2dyz      -0.000000 -0.000000 -0.000000 -0.009669 -0.232676  0.101089
  0Cu  2dx2y2     0.000000 -0.000000 -0.000000 -0.025661  0.257100 -0.010324
  0Cu  2dxy      -0.000000 -0.000000  0.000000 -0.264172 -0.048867 -0.264750
  0Cu  3dz2      -0.000000  0.000000 -0.000000 -0.031785 -0.086077  0.007528
  0Cu  3dxz      -0.000000 -0.000000  0.000000 -0.165764  0.036113  0.157101
  0Cu  3dyz       0.000000  0.000000  0.000000 -0.005957 -0.143362  0.062285
  0Cu  3dx2y2    -0.000000  0.000000  0.000000 -0.015811  0.158411 -0.006361
  0Cu  3dxy       0.000000  0.000000 -0.000000 -0.162768 -0.030109 -0.163124
  0Cu  4pz       -0.004533  0.001897 -0.004681  0.000000 -0.000000  0.000000
  0Cu  4px       -0.003657 -0.005572  0.001283  0.000000 -0.000000 -0.000000
  0Cu  4py       -0.003484  0.003379  0.004744  0.000000  0.000000 -0.000000
  0Cu  4dz2       0.000000 -0.000000  0.000000 -0.004833 -0.013087  0.001145
  0Cu  4dxz       0.000000  0.000000 -0.000000 -0.025203  0.005491  0.023886
  0Cu  4dyz      -0.000000 -0.000000 -0.000000 -0.000906 -0.021797  0.009470
  0Cu  4dx2y2     0.000000 -0.000000 -0.000000 -0.002404  0.024085 -0.000967
  0Cu  4dxy      -0.000000 -0.000000  0.000000 -0.024747 -0.004578 -0.024801
  0Cu  1f0       -0.000000  0.000000  0.000000 -0.000000 -0.000000  0.000000
  0Cu  1f+1       0.000000 -0.000000  0.000000 -0.000000  0.000000  0.000000
  0Cu  1f-1       0.000000 -0.000000  0.000000  0.000000 -0.000000  0.000000
  0Cu  1f+2      -0.000000  0.000000  0.000000  0.000000  0.000000  0.000000
  0Cu  1f-2       0.000000  0.000000 -0.000000 -0.000000 -0.000000 -0.000000
  0Cu  1f+3      -0.000000 -0.000000  0.000000  0.000000  0.000000  0.000000
  0Cu  1f-3      -0.000000  0.000000  0.000000 -0.000000  0.000000 -0.000000
                     12        13        14        15        16        17   
                  -0.33426  -0.33426  -0.17689   0.15554   0.15554   0.15554
                   1.00000   1.00000   1.00000   0.00000   0.00000   0.00000
                  --------  --------  --------  --------  --------  --------
  0Cu  1s        -0.000000 -0.000000  0.022779 -0.000000 -0.000000  0.000000
  0Cu  2s         0.000000  0.000000 -0.077190  0.000001  0.000000 -0.000000
  0Cu  3s        -0.000000 -0.000000  0.164774 -0.000001 -0.000000  0.000000
  0Cu  4s        -0.000000 -0.000000  0.217616 -0.000002 -0.000000  0.000000
  0Cu  5s         0.000002  0.000000 -0.631098  0.000011  0.000000 -0.000001
  0Cu  6s        -0.000000 -0.000000 -0.483896 -0.000008 -0.000000  0.000000
  0Cu  1pz       -0.000000 -0.000000 -0.000000 -0.052350  0.020354  0.050781
  0Cu  1px       -0.000000 -0.000000  0.000000  0.014102 -0.062889  0.039745
  0Cu  1py        0.000000 -0.000000  0.000000  0.052860  0.036936  0.039688
  0Cu  2pz        0.000000  0.000000  0.000000  0.138030 -0.053667 -0.133892
  0Cu  2px        0.000000  0.000000 -0.000000 -0.037183  0.165816 -0.104794
  0Cu  2py       -0.000000  0.000000 -0.000000 -0.139373 -0.097387 -0.104644
  0Cu  3pz       -0.000000 -0.000000  0.000000  0.088433 -0.034383 -0.085782
  0Cu  3px       -0.000000  0.000000 -0.000000 -0.023822  0.106235 -0.067140
  0Cu  3py        0.000000 -0.000000 -0.000000 -0.089293 -0.062394 -0.067044
  0Cu  1dz2       0.185042  0.566267  0.000000 -0.000000  0.000000  0.000000
  0Cu  1dxz       0.090357 -0.074303 -0.000000  0.000000 -0.000000  0.000000
  0Cu  1dyz      -0.483056 -0.016257 -0.000001  0.000000  0.000000 -0.000000
  0Cu  1dx2y2    -0.371358  0.297903 -0.000000  0.000000  0.000000  0.000000
  0Cu  1dxy      -0.074403 -0.063252  0.000000 -0.000000  0.000000 -0.000000
  0Cu  2dz2       0.109047  0.333707  0.000000 -0.000000  0.000000  0.000000
  0Cu  2dxz       0.053248 -0.043788 -0.000000  0.000000 -0.000000  0.000000
  0Cu  2dyz      -0.284670 -0.009580 -0.000001  0.000000  0.000000 -0.000000
  0Cu  2dx2y2    -0.218845  0.175557 -0.000000  0.000000  0.000000  0.000000
  0Cu  2dxy      -0.043846 -0.037275  0.000000 -0.000000  0.000000 -0.000000
  0Cu  3dz2       0.067189  0.205612 -0.000000 -0.000000  0.000000  0.000000
  0Cu  3dxz       0.032809 -0.026980  0.000000  0.000000 -0.000000  0.000000
  0Cu  3dyz      -0.175398 -0.005903  0.000000  0.000000  0.000000  0.000000
  0Cu  3dx2y2    -0.134840  0.108169  0.000000  0.000000  0.000000  0.000000
  0Cu  3dxy      -0.027016 -0.022967 -0.000000 -0.000000  0.000000 -0.000000
  0Cu  4pz       -0.000000 -0.000000 -0.000002 -0.730533  0.284037  0.708637
  0Cu  4px       -0.000000 -0.000000  0.000000  0.196794 -0.877597  0.554634
  0Cu  4py        0.000000 -0.000000  0.000002  0.737642  0.515431  0.553839
  0Cu  4dz2       0.010215  0.031261  0.000000  0.000000 -0.000000 -0.000000
  0Cu  4dxz       0.004988 -0.004102 -0.000000 -0.000000  0.000000 -0.000000
  0Cu  4dyz      -0.026667 -0.000897 -0.000000 -0.000000 -0.000000  0.000000
  0Cu  4dx2y2    -0.020501  0.016446 -0.000000 -0.000000 -0.000000 -0.000000
  0Cu  4dxy      -0.004107 -0.003492  0.000000  0.000000 -0.000000  0.000000
  0Cu  1f0       -0.000000  0.000000  0.000000  0.000000  0.000000  0.000000
  0Cu  1f+1       0.000000 -0.000000  0.000000  0.000000 -0.000000 -0.000000
  0Cu  1f-1      -0.000000 -0.000000  0.000000  0.000000 -0.000000 -0.000000
  0Cu  1f+2      -0.000000  0.000000 -0.000000  0.000000  0.000000  0.000000
  0Cu  1f-2      -0.000000  0.000000  0.000000 -0.000000  0.000000 -0.000000
  0Cu  1f+3      -0.000000  0.000000 -0.000000  0.000000 -0.000000  0.000000
  0Cu  1f-3      -0.000000  0.000000  0.000000  0.000000  0.000000  0.000000
                     18        19        20        21        22        23   
                   0.17341   0.24674   0.24674   0.24674   0.24674   0.24674
                   0.00000   0.00000   0.00000   0.00000   0.00000   0.00000
                  --------  --------  --------  --------  --------  --------
  0Cu  1s         0.020592  0.000000  0.000000  0.000000  0.000000 -0.000000
  0Cu  2s        -0.078165 -0.000000 -0.000000 -0.000000 -0.000000  0.000000
  0Cu  3s         0.135258  0.000000  0.000000  0.000000  0.000000 -0.000000
  0Cu  4s         0.300467  0.000000  0.000000  0.000000  0.000000 -0.000000
  0Cu  5s        -1.909504 -0.000000 -0.000001 -0.000002 -0.000003  0.000000
  0Cu  6s         1.792828  0.000000  0.000001  0.000002  0.000002 -0.000000
  0Cu  1pz       -0.000000  0.000000  0.000000  0.000000  0.000000  0.000000
  0Cu  1px        0.000000 -0.000000  0.000000 -0.000000  0.000000 -0.000000
  0Cu  1py        0.000000  0.000000 -0.000000 -0.000000 -0.000000  0.000000
  0Cu  2pz        0.000001 -0.000000 -0.000000 -0.000000 -0.000000 -0.000000
  0Cu  2px       -0.000000  0.000000 -0.000000  0.000000 -0.000000  0.000000
  0Cu  2py       -0.000001 -0.000000  0.000000  0.000000  0.000000 -0.000000
  0Cu  3pz        0.000000 -0.000000 -0.000000 -0.000000 -0.000000 -0.000000
  0Cu  3px       -0.000000  0.000000 -0.000000  0.000000 -0.000000  0.000000
  0Cu  3py       -0.000000 -0.000000  0.000000  0.000000  0.000000 -0.000000
  0Cu  1dz2       0.000000  0.007996  0.023345  0.011682 -0.066227 -0.118674
  0Cu  1dxz      -0.000000  0.098174 -0.046720  0.085651 -0.002440  0.007216
  0Cu  1dyz      -0.000001  0.001580  0.112907  0.061313  0.052006 -0.000670
  0Cu  1dx2y2    -0.000000  0.004635 -0.041083 -0.018602  0.110069 -0.071025
  0Cu  1dxy       0.000000  0.097411  0.045292 -0.087390  0.001814  0.005858
  0Cu  2dz2       0.000000  0.003574  0.010435  0.005222 -0.029603 -0.053046
  0Cu  2dxz      -0.000000  0.043883 -0.020883  0.038285 -0.001091  0.003226
  0Cu  2dyz      -0.000000  0.000706  0.050468  0.027406  0.023246 -0.000299
  0Cu  2dx2y2    -0.000000  0.002072 -0.018363 -0.008315  0.049199 -0.031747
  0Cu  2dxy       0.000000  0.043542  0.020245 -0.039062  0.000811  0.002619
  0Cu  3dz2       0.000000  0.006813  0.019892  0.009954 -0.056431 -0.101120
  0Cu  3dxz      -0.000000  0.083652 -0.039809  0.072982 -0.002079  0.006149
  0Cu  3dyz      -0.000000  0.001347  0.096206  0.052244  0.044313 -0.000571
  0Cu  3dx2y2    -0.000000  0.003949 -0.035006 -0.015851  0.093788 -0.060519
  0Cu  3dxy       0.000000  0.083002  0.038593 -0.074463  0.001546  0.004992
  0Cu  4pz       -0.000004  0.000000  0.000000  0.000000  0.000000  0.000000
  0Cu  4px        0.000001 -0.000000  0.000000 -0.000000  0.000000 -0.000000
  0Cu  4py        0.000004  0.000000 -0.000000 -0.000000 -0.000000  0.000000
  0Cu  4dz2      -0.000000 -0.060483 -0.176596 -0.088367  0.500977  0.897724
  0Cu  4dxz       0.000000 -0.742645  0.353415 -0.647915  0.018455 -0.054589
  0Cu  4dyz       0.000002 -0.011954 -0.854098 -0.463811 -0.393405  0.005066
  0Cu  4dx2y2     0.000001 -0.035061  0.310775  0.140720 -0.832625  0.537273
  0Cu  4dxy      -0.000000 -0.736876 -0.342618  0.661070 -0.013721 -0.044315
  0Cu  1f0       -0.000000  0.000000  0.000000  0.000000 -0.000000 -0.000000
  0Cu  1f+1      -0.000000  0.000000 -0.000000  0.000000  0.000000  0.000000
  0Cu  1f-1      -0.000000 -0.000000  0.000000  0.000000  0.000000  0.000000
  0Cu  1f+2      -0.000000 -0.000000  0.000000  0.000000  0.000000 -0.000000
  0Cu  1f-2       0.000000  0.000000  0.000000 -0.000000 -0.000000 -0.000000
  0Cu  1f+3      -0.000000 -0.000000 -0.000000  0.000000  0.000000 -0.000000
  0Cu  1f-3      -0.000000  0.000000 -0.000000 -0.000000  0.000000 -0.000000
                     24        25        26        27        28        29   
                   0.96561   0.96561   0.96561   0.96561   0.96561   2.23212
                   0.00000   0.00000   0.00000   0.00000   0.00000   0.00000
                  --------  --------  --------  --------  --------  --------
  0Cu  1s         0.000000 -0.000000  0.000000 -0.000000  0.000000 -0.000000
  0Cu  2s        -0.000000  0.000000 -0.000000  0.000000 -0.000000  0.000000
  0Cu  3s         0.000000 -0.000000  0.000000 -0.000000  0.000000 -0.000000
  0Cu  4s         0.000000 -0.000000  0.000000 -0.000000  0.000000  0.000000
  0Cu  5s        -0.000000  0.000000 -0.000000  0.000000 -0.000000 -0.000000
  0Cu  6s         0.000000 -0.000000  0.000000 -0.000000  0.000000  0.000000
  0Cu  1pz        0.000000 -0.000000  0.000000  0.000000  0.000000 -0.221979
  0Cu  1px       -0.000000 -0.000000 -0.000000  0.000000  0.000000  0.059379
  0Cu  1py       -0.000000  0.000000  0.000000  0.000000 -0.000000  0.223840
  0Cu  2pz       -0.000000  0.000000 -0.000000 -0.000000 -0.000000  0.811651
  0Cu  2px        0.000000  0.000000  0.000000 -0.000000 -0.000000 -0.217114
  0Cu  2py        0.000000 -0.000000 -0.000000 -0.000000  0.000000 -0.818456
  0Cu  3pz        0.000000 -0.000000  0.000000  0.000000  0.000000 -1.062169
  0Cu  3px       -0.000000 -0.000000 -0.000000  0.000000  0.000000  0.284126
  0Cu  3py       -0.000000  0.000000  0.000000  0.000000 -0.000000  1.071073
  0Cu  1dz2      -0.016349  0.019797 -0.025466 -0.274591 -0.164959 -0.000000
  0Cu  1dxz       0.144608  0.174356  0.228133 -0.022216  0.008355  0.000000
  0Cu  1dyz       0.243667 -0.204683  0.003975  0.001195 -0.051317  0.000000
  0Cu  1dx2y2     0.027245 -0.037006 -0.015135 -0.166243  0.271923  0.000000
  0Cu  1dxy      -0.150416 -0.172809  0.225791 -0.019688 -0.007916 -0.000000
  0Cu  2dz2      -0.017226  0.020858 -0.026832 -0.289311 -0.173802  0.000000
  0Cu  2dxz       0.152360  0.183703  0.240363 -0.023407  0.008802 -0.000000
  0Cu  2dyz       0.256729 -0.215656  0.004188  0.001259 -0.054068 -0.000000
  0Cu  2dx2y2     0.028706 -0.038990 -0.015946 -0.175155  0.286500 -0.000000
  0Cu  2dxy      -0.158479 -0.182073  0.237895 -0.020744 -0.008340  0.000000
  0Cu  3dz2       0.065909 -0.079808  0.102663  1.106959  0.665001  0.000000
  0Cu  3dxz      -0.582959 -0.702882 -0.919672  0.089561 -0.033680 -0.000000
  0Cu  3dyz      -0.982295  0.825140 -0.016025 -0.004818  0.206876 -0.000000
  0Cu  3dx2y2    -0.109833  0.149182  0.061014  0.670175 -1.096203 -0.000000
  0Cu  3dxy       0.606370  0.696644 -0.910231  0.079369  0.031912  0.000000
  0Cu  4pz        0.000000 -0.000000  0.000000  0.000000  0.000000  0.384278
  0Cu  4px       -0.000000 -0.000000 -0.000000 -0.000000  0.000000 -0.102793
  0Cu  4py       -0.000000  0.000000  0.000000  0.000000 -0.000000 -0.387499
  0Cu  4dz2      -0.031454  0.038087 -0.048994 -0.528279 -0.317361 -0.000000
  0Cu  4dxz       0.278209  0.335440  0.438900 -0.042741  0.016073  0.000000
  0Cu  4dyz       0.468786 -0.393786  0.007647  0.002299 -0.098728  0.000000
  0Cu  4dx2y2     0.052416 -0.071195 -0.029118 -0.319831  0.523146  0.000000
  0Cu  4dxy      -0.289381 -0.332463  0.434394 -0.037878 -0.015229 -0.000000
  0Cu  1f0        0.000000 -0.000000  0.000000 -0.000000 -0.000000  0.000000
  0Cu  1f+1       0.000000  0.000000  0.000000  0.000000  0.000000  0.000000
  0Cu  1f-1       0.000000 -0.000000  0.000000  0.000000  0.000000  0.000000
  0Cu  1f+2       0.000000 -0.000000 -0.000000 -0.000000  0.000000  0.000000
  0Cu  1f-2      -0.000000 -0.000000  0.000000  0.000000 -0.000000 -0.000000
  0Cu  1f+3       0.000000  0.000000 -0.000000 -0.000000  0.000000  0.000000
  0Cu  1f-3      -0.000000 -0.000000  0.000000 -0.000000  0.000000  0.000000
                     30        31        32        33        34        35   
                   2.23212   2.23212   3.07697   3.82970   3.82970   3.82970
                   0.00000   0.00000   0.00000   0.00000   0.00000   0.00000
                  --------  --------  --------  --------  --------  --------
  0Cu  1s        -0.000000  0.000000  0.159059 -0.000000  0.000000 -0.000000
  0Cu  2s         0.000000 -0.000000  0.024870 -0.000000  0.000000 -0.000000
  0Cu  3s        -0.000000  0.000000  2.208582 -0.000000  0.000000 -0.000000
  0Cu  4s         0.000000 -0.000000 -2.565342  0.000001 -0.000000  0.000000
  0Cu  5s        -0.000000  0.000000  0.975430 -0.000000  0.000000 -0.000000
  0Cu  6s         0.000000 -0.000000 -0.479393  0.000000 -0.000000  0.000000
  0Cu  1pz        0.086278  0.214910 -0.000000 -0.000000  0.000000 -0.000000
  0Cu  1px       -0.266537  0.168336  0.000000  0.000000  0.000000 -0.000000
  0Cu  1py        0.156266  0.168469  0.000000  0.000000 -0.000000 -0.000000
  0Cu  2pz       -0.315469 -0.785804  0.000000  0.000000 -0.000000  0.000000
  0Cu  2px        0.974575 -0.615508 -0.000000 -0.000000 -0.000000  0.000000
  0Cu  2py       -0.571374 -0.615993 -0.000000 -0.000000  0.000000  0.000000
  0Cu  3pz        0.412839  1.028343 -0.000000 -0.000000  0.000000 -0.000000
  0Cu  3px       -1.275379  0.805486  0.000000  0.000000  0.000000  0.000000
  0Cu  3py        0.747730  0.806121  0.000000  0.000000 -0.000000 -0.000000
  0Cu  1dz2       0.000000  0.000000  0.000000  0.105204 -0.100074  0.579142
  0Cu  1dxz      -0.000000  0.000000 -0.000000 -0.333809 -0.540212 -0.422905
  0Cu  1dyz       0.000000 -0.000000 -0.000000 -0.735396  0.435827 -0.013916
  0Cu  1dx2y2     0.000000  0.000000 -0.000000 -0.178509  0.201505  0.337020
  0Cu  1dxy       0.000000 -0.000000  0.000000  0.349656  0.533887 -0.435199
  0Cu  2dz2      -0.000000 -0.000000 -0.000000 -0.155004  0.147446 -0.853289
  0Cu  2dxz       0.000000 -0.000000  0.000000  0.491823  0.795931  0.623095
  0Cu  2dyz      -0.000000  0.000000  0.000000  1.083510 -0.642133  0.020504
  0Cu  2dx2y2    -0.000000 -0.000000  0.000000  0.263010 -0.296891 -0.496555
  0Cu  2dxy      -0.000000  0.000000 -0.000000 -0.515172 -0.786613  0.641209
  0Cu  3dz2      -0.000000 -0.000000  0.000000  0.081477 -0.077504  0.448528
  0Cu  3dxz       0.000000 -0.000000 -0.000000 -0.258525 -0.418377 -0.327527
  0Cu  3dyz      -0.000000  0.000000 -0.000000 -0.569542  0.337534 -0.010778
  0Cu  3dx2y2    -0.000000 -0.000000 -0.000000 -0.138250  0.156060  0.261012
  0Cu  3dxy      -0.000000  0.000000  0.000000  0.270798  0.413479 -0.337049
  0Cu  4pz       -0.149359 -0.372040  0.000000  0.000000 -0.000000  0.000000
  0Cu  4px        0.461414 -0.291414 -0.000000 -0.000000 -0.000000 -0.000000
  0Cu  4py       -0.270518 -0.291643 -0.000000 -0.000000  0.000000  0.000000
  0Cu  4dz2       0.000000  0.000000 -0.000000 -0.026631  0.025333 -0.146603
  0Cu  4dxz      -0.000000  0.000000  0.000000  0.084500  0.136749  0.107054
  0Cu  4dyz       0.000000 -0.000000  0.000000  0.186158 -0.110325  0.003523
  0Cu  4dx2y2     0.000000  0.000000  0.000000  0.045188 -0.051009 -0.085313
  0Cu  4dxy       0.000000 -0.000000 -0.000000 -0.088512 -0.135148  0.110166
  0Cu  1f0        0.000000  0.000000 -0.000000 -0.000000  0.000000  0.000000
  0Cu  1f+1      -0.000000 -0.000000 -0.000000 -0.000000 -0.000000 -0.000000
  0Cu  1f-1      -0.000000 -0.000000 -0.000000 -0.000000  0.000000 -0.000000
  0Cu  1f+2       0.000000  0.000000 -0.000000 -0.000000  0.000000  0.000000
  0Cu  1f-2       0.000000 -0.000000  0.000000  0.000000  0.000000 -0.000000
  0Cu  1f+3      -0.000000  0.000000 -0.000000 -0.000000 -0.000000  0.000000
  0Cu  1f-3       0.000000  0.000000 -0.000000 -0.000000  0.000000  0.000000
                     36        37        38        39        40        41   
                   3.82970   3.82970   5.96609   5.96609   5.96609   5.96609
                   0.00000   0.00000   0.00000   0.00000   0.00000   0.00000
                  --------  --------  --------  --------  --------  --------
  0Cu  1s        -0.000000 -0.000000  0.000000 -0.000000 -0.000000 -0.000000
  0Cu  2s        -0.000000 -0.000000  0.000000  0.000000  0.000000  0.000000
  0Cu  3s        -0.000000 -0.000000  0.000000 -0.000000 -0.000000 -0.000000
  0Cu  4s         0.000000  0.000000 -0.000000  0.000000  0.000000 -0.000000
  0Cu  5s        -0.000000 -0.000000  0.000000  0.000000  0.000000  0.000000
  0Cu  6s         0.000000  0.000000 -0.000000  0.000000  0.000000 -0.000000
  0Cu  1pz        0.000000 -0.000000  0.000000 -0.000000  0.000000  0.000000
  0Cu  1px        0.000000 -0.000000 -0.000000  0.000000  0.000000 -0.000000
  0Cu  1py        0.000000  0.000000 -0.000000 -0.000000  0.000000 -0.000000
  0Cu  2pz       -0.000000  0.000000 -0.000000  0.000000 -0.000000 -0.000000
  0Cu  2px       -0.000000  0.000000  0.000000 -0.000000 -0.000000  0.000000
  0Cu  2py       -0.000000 -0.000000  0.000000  0.000000 -0.000000  0.000000
  0Cu  3pz        0.000000 -0.000000  0.000000 -0.000000  0.000000  0.000000
  0Cu  3px        0.000000 -0.000000 -0.000000  0.000000  0.000000 -0.000000
  0Cu  3py        0.000000  0.000000 -0.000000 -0.000000  0.000000 -0.000000
  0Cu  1dz2      -0.523478  0.432332  0.000000 -0.000000  0.000000 -0.000000
  0Cu  1dxz      -0.481358 -0.060143 -0.000000  0.000000 -0.000000 -0.000000
  0Cu  1dyz      -0.003650  0.294056 -0.000000 -0.000000 -0.000000 -0.000000
  0Cu  1dx2y2    -0.306868 -0.732945 -0.000000 -0.000000  0.000000 -0.000000
  0Cu  1dxy      -0.466382  0.056772  0.000000 -0.000000 -0.000000 -0.000000
  0Cu  2dz2       0.771276 -0.636985 -0.000000  0.000000 -0.000000  0.000000
  0Cu  2dxz       0.709218  0.088613  0.000000 -0.000000  0.000000  0.000000
  0Cu  2dyz       0.005378 -0.433252  0.000000  0.000000  0.000000  0.000000
  0Cu  2dx2y2     0.452130  1.079898  0.000000  0.000000 -0.000000  0.000000
  0Cu  2dxy       0.687152 -0.083647 -0.000000  0.000000  0.000000  0.000000
  0Cu  3dz2      -0.405418  0.334828  0.000000 -0.000000  0.000000 -0.000000
  0Cu  3dxz      -0.372797 -0.046579 -0.000000  0.000000 -0.000000 -0.000000
  0Cu  3dyz      -0.002827  0.227737 -0.000000 -0.000000 -0.000000 -0.000000
  0Cu  3dx2y2    -0.237660 -0.567643 -0.000000 -0.000000  0.000000 -0.000000
  0Cu  3dxy      -0.361199  0.043969  0.000000 -0.000000 -0.000000 -0.000000
  0Cu  4pz       -0.000000  0.000000 -0.000000  0.000000 -0.000000 -0.000000
  0Cu  4px       -0.000000  0.000000  0.000000 -0.000000 -0.000000  0.000000
  0Cu  4py       -0.000000 -0.000000  0.000000  0.000000 -0.000000  0.000000
  0Cu  4dz2       0.132513 -0.109440 -0.000000  0.000000 -0.000000  0.000000
  0Cu  4dxz       0.121851  0.015225  0.000000 -0.000000  0.000000  0.000000
  0Cu  4dyz       0.000924 -0.074437  0.000000  0.000000  0.000000  0.000000
  0Cu  4dx2y2     0.077680  0.185537  0.000000  0.000000 -0.000000  0.000000
  0Cu  4dxy       0.118060 -0.014371 -0.000000  0.000000  0.000000  0.000000
  0Cu  1f0       -0.000000  0.000000  0.179478  0.013548 -0.603885  0.268600
  0Cu  1f+1      -0.000000 -0.000000  0.131531 -0.337304  0.189390  0.734171
  0Cu  1f-1       0.000000  0.000000  0.592883  0.070389  0.637312 -0.120569
  0Cu  1f+2      -0.000000 -0.000000  0.618599  0.379175 -0.221894 -0.030735
  0Cu  1f-2      -0.000000  0.000000 -0.342723  0.708527  0.136808 -0.016601
  0Cu  1f+3       0.000000 -0.000000  0.212864 -0.338203 -0.273606 -0.556184
  0Cu  1f-3      -0.000000 -0.000000  0.231392  0.347739 -0.224667  0.252487
                     42        43        44   
                   5.96609   5.96609   5.96609
                   0.00000   0.00000   0.00000
                  --------  --------  --------
  0Cu  1s         0.000000  0.000000 -0.000000
  0Cu  2s        -0.000000 -0.000000  0.000000
  0Cu  3s         0.000000  0.000000 -0.000000
  0Cu  4s        -0.000000 -0.000000  0.000000
  0Cu  5s        -0.000000 -0.000000  0.000000
  0Cu  6s         0.000000  0.000000 -0.000000
  0Cu  1pz       -0.000000 -0.000000  0.000000
  0Cu  1px       -0.000000  0.000000 -0.000000
  0Cu  1py        0.000000 -0.000000  0.000000
  0Cu  2pz        0.000000  0.000000 -0.000000
  0Cu  2px        0.000000 -0.000000  0.000000
  0Cu  2py       -0.000000  0.000000 -0.000000
  0Cu  3pz       -0.000000 -0.000000  0.000000
  0Cu  3px       -0.000000  0.000000 -0.000000
  0Cu  3py        0.000000 -0.000000  0.000000
  0Cu  1dz2       0.000000  0.000000 -0.000000
  0Cu  1dxz      -0.000000 -0.000000 -0.000000
  0Cu  1dyz       0.000000  0.000000 -0.000000
  0Cu  1dx2y2    -0.000000 -0.000000  0.000000
  0Cu  1dxy       0.000000 -0.000000 -0.000000
  0Cu  2dz2      -0.000000 -0.000000  0.000000
  0Cu  2dxz       0.000000  0.000000  0.000000
  0Cu  2dyz      -0.000000 -0.000000  0.000000
  0Cu  2dx2y2     0.000000  0.000000 -0.000000
  0Cu  2dxy      -0.000000  0.000000  0.000000
  0Cu  3dz2       0.000000  0.000000 -0.000000
  0Cu  3dxz      -0.000000 -0.000000 -0.000000
  0Cu  3dyz       0.000000  0.000000 -0.000000
  0Cu  3dx2y2    -0.000000 -0.000000  0.000000
  0Cu  3dxy       0.000000 -0.000000 -0.000000
  0Cu  4pz        0.000000  0.000000 -0.000000
  0Cu  4px        0.000000 -0.000000  0.000000
  0Cu  4py       -0.000000  0.000000 -0.000000
  0Cu  4dz2      -0.000000 -0.000000  0.000000
  0Cu  4dxz       0.000000  0.000000  0.000000
  0Cu  4dyz      -0.000000 -0.000000  0.000000
  0Cu  4dx2y2     0.000000  0.000000 -0.000000
  0Cu  4dxy      -0.000000  0.000000  0.000000
  0Cu  1f0       -0.661477 -0.263529  0.154215
  0Cu  1f+1       0.195503  0.173785  0.475002
  0Cu  1f-1      -0.314020 -0.344721  0.073424
  0Cu  1f+2       0.100321  0.641519 -0.042059
  0Cu  1f-2      -0.074622  0.009004  0.596565
  0Cu  1f+3       0.267471 -0.128700  0.606632
  0Cu  1f-3       0.581760 -0.594413 -0.139779

                      0         1         2         3         4         5   
                 -324.98438 -39.37717 -34.58333 -34.58333 -34.58333  -4.44810
                   1.00000   1.00000   1.00000   1.00000   1.00000   1.00000
                  --------  --------  --------  --------  --------  --------
  0Cu  1s        -0.997579  0.319405  0.000000  0.000000 -0.000000  0.119492
  0Cu  2s        -0.007516 -1.037228 -0.000000 -0.000000  0.000000 -0.463767
  0Cu  3s         0.002727 -0.041625 -0.000000 -0.000000  0.000000  0.640851
  0Cu  4s        -0.001666  0.013716  0.000000  0.000000 -0.000000  0.471492
  0Cu  5s         0.000419 -0.003018  0.000000  0.000000 -0.000000  0.012523
  0Cu  6s        -0.000204  0.001451  0.000000  0.000000 -0.000000 -0.004632
  0Cu  1pz       -0.000000 -0.000000  0.680788 -0.304588 -0.652963  0.000000
  0Cu  1px        0.000000  0.000000 -0.191981  0.789176 -0.568288 -0.000000
  0Cu  1py        0.000000  0.000000 -0.694462 -0.516754 -0.483005 -0.000000
  0Cu  2pz        0.000000  0.000000  0.015996 -0.007157 -0.015342 -0.000000
  0Cu  2px       -0.000000 -0.000000 -0.004511  0.018543 -0.013353  0.000000
  0Cu  2py       -0.000000 -0.000000 -0.016317 -0.012142 -0.011349  0.000000
  0Cu  3pz       -0.000000 -0.000000 -0.003253  0.001455  0.003120  0.000000
  0Cu  3px        0.000000  0.000000  0.000917 -0.003770  0.002715 -0.000000
  0Cu  3py        0.000000  0.000000  0.003318  0.002469  0.002308 -0.000000
  0Cu  1dz2      -0.000000 -0.000000  0.000000 -0.000000 -0.000000  0.000000
  0Cu  1dxz       0.000000  0.000000 -0.000000  0.000000 -0.000000 -0.000000
  0Cu  1dyz       0.000000  0.000000 -0.000000 -0.000000  0.000000 -0.000000
  0Cu  1dx2y2     0.000000  0.000000 -0.000000 -0.000000 -0.000000 -0.000000
  0Cu  1dxy      -0.000000 -0.000000  0.000000 -0.000000  0.000000  0.000000
  0Cu  2dz2       0.000000  0.000000 -0.000000  0.000000  0.000000  0.000000
  0Cu  2dxz      -0.000000 -0.000000  0.000000 -0.000000  0.000000 -0.000000
  0Cu  2dyz      -0.000000 -0.000000  0.000000  0.000000 -0.000000 -0.000000
  0Cu  2dx2y2    -0.000000 -0.000000  0.000000  0.000000  0.000000 -0.000000
  0Cu  2dxy       0.000000  0.000000 -0.000000  0.000000 -0.000000  0.000000
  0Cu  3dz2      -0.000000  0.000000  0.000000 -0.000000 -0.000000 -0.000000
  0Cu  3dxz       0.000000 -0.000000 -0.000000  0.000000 -0.000000  0.000000
  0Cu  3dyz       0.000000 -0.000000 -0.000000 -0.000000  0.000000  0.000000
  0Cu  3dx2y2     0.000000 -0.000000 -0.000000 -0.000000 -0.000000  0.000000
  0Cu  3dxy      -0.000000  0.000000  0.000000 -0.000000  0.000000 -0.000000
  0Cu  4pz        0.000000  0.000000  0.000733 -0.000328 -0.000703  0.000000
  0Cu  4px       -0.000000 -0.000000 -0.000207  0.000850 -0.000612 -0.000000
  0Cu  4py       -0.000000 -0.000000 -0.000748 -0.000556 -0.000520 -0.000000
  0Cu  4dz2       0.000000 -0.000000 -0.000000  0.000000  0.000000 -0.000000
  0Cu  4dxz      -0.000000  0.000000  0.000000 -0.000000  0.000000  0.000000
  0Cu  4dyz      -0.000000  0.000000  0.000000  0.000000 -0.000000  0.000000
  0Cu  4dx2y2    -0.000000  0.000000  0.000000  0.000000  0.000000  0.000000
  0Cu  4dxy       0.000000 -0.000000 -0.000000  0.000000 -0.000000 -0.000000
  0Cu  1f0       -0.000000  0.000000 -0.000000 -0.000000 -0.000000  0.000000
  0Cu  1f+1      -0.000000  0.000000 -0.000000  0.000000  0.000000  0.000000
  0Cu  1f-1      -0.000000  0.000000 -0.000000  0.000000  0.000000  0.000000
  0Cu  1f+2      -0.000000  0.000000 -0.000000 -0.000000 -0.000000  0.000000
  0Cu  1f-2      -0.000000  0.000000  0.000000 -0.000000  0.000000 -0.000000
  0Cu  1f+3       0.000000 -0.000000 -0.000000  0.000000 -0.000000  0.000000
  0Cu  1f-3      -0.000000  0.000000 -0.000000 -0.000000 -0.000000  0.000000
                      6         7         8         9        10        11   
                  -2.92751  -2.92751  -2.92751  -0.33046  -0.33046  -0.33046
                   1.00000   1.00000   1.00000   1.00000   1.00000   1.00000
                  --------  --------  --------  --------  --------  --------
  0Cu  1s         0.000000  0.000000 -0.000000  0.000000  0.000000  0.000000
  0Cu  2s        -0.000000 -0.000000  0.000000 -0.000000 -0.000000 -0.000001
  0Cu  3s         0.000000  0.000000 -0.000000  0.000000  0.000001  0.000003
  0Cu  4s        -0.000000 -0.000000  0.000000  0.000000  0.000001  0.000002
  0Cu  5s        -0.000000 -0.000000  0.000000 -0.000001 -0.000002 -0.000010
  0Cu  6s         0.000000  0.000000 -0.000000 -0.000000 -0.000001 -0.000005
  0Cu  1pz        0.264457 -0.101829 -0.255917  0.000000  0.000000  0.000000
  0Cu  1px       -0.070284  0.318089 -0.199197 -0.000000  0.000000 -0.000000
  0Cu  1py       -0.266314 -0.185068 -0.201562 -0.000000 -0.000000 -0.000000
  0Cu  2pz       -0.608637  0.234356  0.588983 -0.000000 -0.000000 -0.000000
  0Cu  2px        0.161756 -0.732069  0.458445  0.000000 -0.000000  0.000000
  0Cu  2py        0.612910  0.425927  0.463886  0.000000  0.000000  0.000000
  0Cu  3pz       -0.179212  0.069006  0.173425  0.000000  0.000000  0.000000
  0Cu  3px        0.047629 -0.215556  0.134988 -0.000000  0.000000 -0.000000
  0Cu  3py        0.180470  0.125413  0.136590 -0.000000 -0.000000 -0.000000
  0Cu  1dz2       0.000000 -0.000000 -0.000000 -0.100693 -0.207047  0.130933
  0Cu  1dxz      -0.000000  0.000000 -0.000000 -0.462362  0.087318 -0.289872
  0Cu  1dyz      -0.000000 -0.000000  0.000000 -0.044056 -0.435234 -0.383172
  0Cu  1dx2y2    -0.000000 -0.000000 -0.000000 -0.038785  0.421388 -0.240952
  0Cu  1dxy       0.000000 -0.000000  0.000000 -0.437700 -0.038139  0.336001
  0Cu  2dz2      -0.000000  0.000000  0.000000 -0.059204 -0.121737  0.076985
  0Cu  2dxz       0.000000 -0.000000  0.000000 -0.271854  0.051341 -0.170435
  0Cu  2dyz       0.000000  0.000000 -0.000000 -0.025903 -0.255904 -0.225293
  0Cu  2dx2y2     0.000000  0.000000  0.000000 -0.022804  0.247763 -0.141672
  0Cu  2dxy      -0.000000  0.000000 -0.000000 -0.257354 -0.022424  0.197558
  0Cu  3dz2      -0.000000  0.000000  0.000000 -0.035837 -0.073688  0.046599
  0Cu  3dxz       0.000000 -0.000000  0.000000 -0.164555  0.031077 -0.103165
  0Cu  3dyz       0.000000  0.000000 -0.000000 -0.015679 -0.154900 -0.136371
  0Cu  3dx2y2     0.000000  0.000000  0.000000 -0.013803  0.149972 -0.085755
  0Cu  3dxy      -0.000000  0.000000 -0.000000 -0.155778 -0.013574  0.119583
  0Cu  4pz       -0.004922  0.001895  0.004763  0.000000  0.000000  0.000000
  0Cu  4px        0.001308 -0.005920  0.003707 -0.000000  0.000000 -0.000000
  0Cu  4py        0.004956  0.003444  0.003751 -0.000000 -0.000000 -0.000000
  0Cu  4dz2      -0.000000  0.000000  0.000000 -0.007945 -0.016338  0.010332
  0Cu  4dxz       0.000000 -0.000000  0.000000 -0.036484  0.006890 -0.022874
  0Cu  4dyz       0.000000  0.000000 -0.000000 -0.003476 -0.034344 -0.030236
  0Cu  4dx2y2     0.000000  0.000000  0.000000 -0.003060  0.033251 -0.019013
  0Cu  4dxy      -0.000000  0.000000 -0.000000 -0.034538 -0.003009  0.026514
  0Cu  1f0        0.000000  0.000000  0.000000 -0.000000 -0.000000 -0.000000
  0Cu  1f+1       0.000000 -0.000000 -0.000000 -0.000000  0.000000 -0.000000
  0Cu  1f-1       0.000000 -0.000000 -0.000000  0.000000 -0.000000 -0.000000
  0Cu  1f+2       0.000000  0.000000  0.000000  0.000000 -0.000000 -0.000000
  0Cu  1f-2      -0.000000  0.000000 -0.000000  0.000000 -0.000000  0.000000
  0Cu  1f+3       0.000000 -0.000000  0.000000  0.000000  0.000000 -0.000000
  0Cu  1f-3       0.000000  0.000000  0.000000 -0.000000  0.000000 -0.000000
                     12        13        14        15        16        17   
                  -0.33046  -0.33046  -0.07151   0.14640   0.14640   0.14640
                   1.00000   1.00000   0.00000   0.00000   0.00000   0.00000
                  --------  --------  --------  --------  --------  --------
  0Cu  1s         0.000000 -0.000000  0.017788 -0.000000  0.000001 -0.000002
  0Cu  2s        -0.000000  0.000000 -0.058584  0.000000 -0.000004  0.000006
  0Cu  3s         0.000001 -0.000000  0.131310 -0.000001  0.000007 -0.000011
  0Cu  4s         0.000001 -0.000000  0.147467 -0.000002  0.000016 -0.000024
  0Cu  5s        -0.000004  0.000000 -0.198646  0.000010 -0.000093  0.000138
  0Cu  6s        -0.000002  0.000000 -0.863970 -0.000008  0.000077 -0.000114
  0Cu  1pz        0.000000 -0.000000  0.000000 -0.000000  0.000000 -0.000000
  0Cu  1px        0.000000 -0.000000 -0.000000  0.000000  0.000000  0.000001
  0Cu  1py       -0.000000 -0.000000 -0.000000 -0.000000 -0.000000  0.000000
  0Cu  2pz       -0.000000  0.000000 -0.000000  0.000000 -0.000001  0.000001
  0Cu  2px       -0.000000  0.000000  0.000000 -0.000000 -0.000001 -0.000003
  0Cu  2py        0.000000  0.000000  0.000000  0.000000  0.000001 -0.000001
  0Cu  3pz        0.000000 -0.000000 -0.000000  0.000000 -0.000001  0.000000
  0Cu  3px        0.000000 -0.000000  0.000000 -0.000000 -0.000001 -0.000002
  0Cu  3py       -0.000000 -0.000000  0.000000  0.000000  0.000001 -0.000001
  0Cu  1dz2       0.120450 -0.578174 -0.000002  0.010238 -0.032977  0.013961
  0Cu  1dxz       0.332738  0.052928  0.000002  0.092060  0.034384  0.084643
  0Cu  1dyz      -0.283622  0.017673  0.000008  0.001477 -0.101009  0.040156
  0Cu  1dx2y2    -0.331783 -0.267832  0.000003  0.005896  0.057761 -0.021779
  0Cu  1dxy      -0.321248  0.099052 -0.000002  0.091058 -0.033156 -0.086385
  0Cu  2dz2       0.070821 -0.339948 -0.000001  0.002867 -0.009234  0.003909
  0Cu  2dxz       0.195639  0.031120  0.000001  0.025777  0.009628  0.023701
  0Cu  2dyz      -0.166761  0.010391  0.000004  0.000414 -0.028283  0.011244
  0Cu  2dx2y2    -0.195078 -0.157477  0.000002  0.001651  0.016173 -0.006098
  0Cu  2dxy      -0.188884  0.058239 -0.000001  0.025497 -0.009284 -0.024189
  0Cu  3dz2       0.042868 -0.205772 -0.000001  0.016772 -0.054025  0.022872
  0Cu  3dxz       0.118421  0.018837  0.000001  0.150815  0.056329  0.138662
  0Cu  3dyz      -0.100941  0.006290  0.000003  0.002420 -0.165476  0.065784
  0Cu  3dx2y2    -0.118082 -0.095321  0.000001  0.009659  0.094627 -0.035679
  0Cu  3dxy      -0.114332  0.035253 -0.000001  0.149174 -0.054317 -0.141516
  0Cu  4pz        0.000000 -0.000000  0.000001 -0.000001  0.000004 -0.000003
  0Cu  4px        0.000000 -0.000000 -0.000000  0.000000  0.000004  0.000015
  0Cu  4py       -0.000000 -0.000000 -0.000000 -0.000000 -0.000005  0.000004
  0Cu  4dz2       0.009505 -0.045623 -0.000000 -0.085735  0.276166 -0.116919
  0Cu  4dxz       0.026256  0.004177  0.000001 -0.770949 -0.287946 -0.708831
  0Cu  4dyz      -0.022381  0.001395  0.000002 -0.012370  0.845894 -0.336285
  0Cu  4dx2y2    -0.026181 -0.021135  0.000001 -0.049377 -0.483720  0.182385
[...]
Angular Grid (max. ang.)         AngularGrid ... 1 (Lebedev-50)
Angular grid pruning method      GridPruning ... 4 (adaptive)
Weight generation scheme         WeightScheme... Becke
Basis function cutoff            BFCut       ... 1.0000e-11
Integration weight cutoff        WCut        ... 1.0000e-14
Angular grids for H and He will be reduced by one unit
Partially contracted basis set               ... off
Rotationally invariant grid construction     ... off

Total number of grid points                  ...     4348
Total number of batches                      ...       68
Average number of points per batch           ...       63
Average number of grid points per atom       ...     4348

---------------------
COSX-INTEGRATION GRID
---------------------

General Integration Accuracy     IntAcc      ... 3.067
Radial Grid Type                 RadialGrid  ... OptM3 with GC (2021)
Angular Grid (max. ang.)         AngularGrid ... 1 (Lebedev-50)
Angular grid pruning method      GridPruning ... 4 (adaptive)
Weight generation scheme         WeightScheme... Becke
Basis function cutoff            BFCut       ... 1.0000e-11
Integration weight cutoff        WCut        ... 1.0000e-14
Angular grids for H and He will be reduced by one unit
Partially contracted basis set               ... on
Rotationally invariant grid construction     ... off

Total number of grid points                  ...      838
Total number of batches                      ...       14
Average number of points per batch           ...       59
Average number of grid points per atom       ...      838

---------------
TD-DFT XC SETUP
---------------

DFT calculation                         ... on
Name of the grid file                   ... cu0.grid_cis.tmp
Exchange functional (TD-DFT)            ... M062X
Correlation functional (TD-DFT)         ... M062X
Hybrid DFT                              ... on
   Exchange mixing (TD-DFT)             ...  0.540
   GGA exch. scaling (TD-DFT)           ...  0.460
   GGA corr. scaling (TD-DFT)           ...  1.000

Building densities             ... done
Calculating rho(r) on the grid ... done
Building xc-kernel on the grid ... done
                    *** TD-DFT CALCULATION INITIALIZED ***

---------------------------------
    LR-CPCM (non-equilibrium)
---------------------------------

Setting up LR-CPCM             ... done

------------------------
DAVIDSON-DIAGONALIZATION
------------------------

Dimension of the eigenvalue problem            ...    579
Number of roots to be determined               ...     12
Maximum size of the expansion space            ...    579
Maximum number of iterations                   ...    100
Convergence tolerance for the residual         ...    2.500e-07
Convergence tolerance for the energies         ...    2.500e-07
Orthogonality tolerance                        ...    1.000e-14
Level Shift                                    ...    0.000e+00
Constructing the preconditioner                ... o.k.
Building the initial guess                     ... o.k.
Number of trial vectors determined             ...    512


                       ****Iteration    0****

   Memory handling for direct AO based CIS:
   Memory per vector needed      ...     1 MB
   Memory needed                 ...     5 MB
   Memory available              ...   512 MB
   Number of vectors per batch   ...   512
   Number of batches             ...     1
   Time for densities:            0.003
   Time for RI-J (Direct):        0.017
   Time for K (COSX):             0.074
   Time for XC-Integration:       0.117
   Time for LR-CPCM terms:        0.142
   Time for Sigma-Completion:     0.007
   Size of expansion space: 36
   Lowest Energy          :     0.099247004492
   Maximum Energy change  :     0.293518281336 (vector 11)
   Maximum residual norm  :     0.008962405735

                       ****Iteration    1****
   Time for densities:            0.001
   Time for RI-J (Direct):        0.010
   Time for K (COSX):             0.056
   Time for XC-Integration:       0.041
   Time for LR-CPCM terms:        0.108
   Time for Sigma-Completion:     0.002
   Size of expansion space: 48
   Lowest Energy          :     0.080100737119
   Maximum Energy change  :     0.019161266968 (vector 4)
   Maximum residual norm  :     0.005388959496

                       ****Iteration    2****
   Time for densities:            0.001
   Time for RI-J (Direct):        0.012
   Time for K (COSX):             0.060
   Time for XC-Integration:       0.043
   Time for LR-CPCM terms:        0.108
   Time for Sigma-Completion:     0.002
   Size of expansion space: 60
   Lowest Energy          :     0.080067087739
   Maximum Energy change  :     0.001518318503 (vector 7)
   Maximum residual norm  :     0.000049706739

                       ****Iteration    3****
   Time for densities:            0.001
   Time for RI-J (Direct):        0.010
   Time for K (COSX):             0.056
   Time for XC-Integration:       0.050
   Time for LR-CPCM terms:        0.116
   Time for Sigma-Completion:     0.002
   Size of expansion space: 72
   Lowest Energy          :     0.080066629869
   Maximum Energy change  :     0.000014124436 (vector 7)
   Maximum residual norm  :     0.000000359618

                       ****Iteration    4****
   Time for densities:            0.001
   Time for RI-J (Direct):        0.008
   Time for K (COSX):             0.055
   Time for XC-Integration:       0.041
   Time for LR-CPCM terms:        0.108
   Time for Sigma-Completion:     0.002
   Size of expansion space: 84
   Lowest Energy          :     0.080066627428
   Maximum Energy change  :     0.009500577917 (vector 10)
   Maximum residual norm  :     0.030078916004

                       ****Iteration    5****
   Time for densities:            0.001
   Time for RI-J (Direct):        0.009
   Time for K (COSX):             0.055
   Time for XC-Integration:       0.042
   Time for LR-CPCM terms:        0.108
   Time for Sigma-Completion:     0.002
   Size of expansion space: 96
   Lowest Energy          :     0.080066627418
   Maximum Energy change  :     0.009282578647 (vector 11)
   Maximum residual norm  :     0.000023699269

                       ****Iteration    6****
   Time for densities:            0.001
   Time for RI-J (Direct):        0.009
   Time for K (COSX):             0.055
   Time for XC-Integration:       0.042
   Time for LR-CPCM terms:        0.108
   Time for Sigma-Completion:     0.003
   Size of expansion space: 108
   Lowest Energy          :     0.080066627418
   Maximum Energy change  :     0.000005993077 (vector 11)
   Maximum residual norm  :     0.000000008823

      *** CONVERGENCE OF RESIDUAL NORM REACHED ***

Storing the converged CI vectors               ... cu0.cis2

                 *** DAVIDSON DONE ***

Total time for solving the CIS problem:     1.951sec

-------------------------
TD-DFT/TDA EXCITED STATES
-------------------------

the weight of the individual excitations are printed if larger than 1.0e-02

STATE  1:  E=   0.080067 au      2.179 eV    17572.6 cm**-1 <S**2> =   0.757713
    10b ->  14b  :     0.841021 (c= -0.91707174)
    10b ->  20b  :     0.067839 (c=  0.26046002)
    11b ->  14b  :     0.042224 (c=  0.20548390)
    12b ->  14b  :     0.033415 (c=  0.18279719)

STATE  2:  E=   0.080067 au      2.179 eV    17572.6 cm**-1 <S**2> =   0.757713
     9b ->  14b  :     0.908670 (c= -0.95324197)
     9b ->  20b  :     0.073296 (c=  0.27073269)

STATE  3:  E=   0.080067 au      2.179 eV    17572.7 cm**-1 <S**2> =   0.757713
     9b ->  14b  :     0.010501 (c= -0.10247358)
    13b ->  14b  :     0.907312 (c=  0.95252933)
    13b ->  20b  :     0.073187 (c= -0.27053122)

STATE  4:  E=   0.080067 au      2.179 eV    17572.7 cm**-1 <S**2> =   0.757713
    10b ->  14b  :     0.015086 (c= -0.12282695)
    11b ->  14b  :     0.076063 (c=  0.27579467)
    12b ->  14b  :     0.831494 (c= -0.91186268)
    12b ->  20b  :     0.067071 (c=  0.25898119)

STATE  5:  E=   0.080067 au      2.179 eV    17572.8 cm**-1 <S**2> =   0.757713
    10b ->  14b  :     0.061350 (c=  0.24768991)
    11b ->  14b  :     0.803218 (c=  0.89622439)
    11b ->  20b  :     0.064791 (c= -0.25453991)
    12b ->  14b  :     0.056307 (c=  0.23729014)

STATE  6:  E=   0.204106 au      5.554 eV    44796.0 cm**-1 <S**2> =   0.753147
    14a ->  15a  :     0.917074 (c=  0.95763978)
    11b ->  21b  :     0.016120 (c= -0.12696424)
    13b ->  23b  :     0.011439 (c=  0.10695220)

STATE  7:  E=   0.204106 au      5.554 eV    44796.0 cm**-1 <S**2> =   0.753149
    14a ->  16a  :     0.914971 (c=  0.95654141)
     9b ->  22b  :     0.011122 (c= -0.10546046)
    10b ->  23b  :     0.011376 (c= -0.10665947)
    12b ->  21b  :     0.010481 (c= -0.10237649)

STATE  8:  E=   0.204106 au      5.554 eV    44796.1 cm**-1 <S**2> =   0.753149
    14a ->  17a  :     0.913250 (c=  0.95564093)
     9b ->  23b  :     0.012725 (c= -0.11280580)
    10b ->  22b  :     0.011792 (c=  0.10859165)
    13b ->  21b  :     0.012358 (c= -0.11116852)

STATE  9:  E=   0.244868 au      6.663 eV    53742.3 cm**-1 <S**2> =   0.756767
    14a ->  18a  :     0.980889 (c=  0.99039831)

STATE 10:  E=   0.273818 au      7.451 eV    60096.1 cm**-1 <S**2> =   2.736935
     9a ->  17a  :     0.177230 (c=  0.42098707)
    10a ->  16a  :     0.163428 (c=  0.40426269)
    11a ->  15a  :     0.089670 (c=  0.29945002)
    11a ->  17a  :     0.011350 (c= -0.10653505)
    12a ->  15a  :     0.025814 (c=  0.16066816)
    12a ->  16a  :     0.016643 (c= -0.12900886)
    12a ->  17a  :     0.033616 (c=  0.18334599)
    13a ->  15a  :     0.057743 (c=  0.24029764)
     9b ->  23b  :     0.132138 (c= -0.36350827)
    10b ->  22b  :     0.109936 (c=  0.33156531)
    11b ->  21b  :     0.014545 (c= -0.12060158)
    11b ->  22b  :     0.016864 (c= -0.12986011)
    11b ->  23b  :     0.022712 (c= -0.15070470)
    12b ->  21b  :     0.059979 (c=  0.24490592)
    13b ->  21b  :     0.050446 (c= -0.22460106)

STATE 11:  E=   0.273818 au      7.451 eV    60096.1 cm**-1 <S**2> =   2.736935
     9a ->  16a  :     0.169837 (c= -0.41211278)
    10a ->  17a  :     0.179529 (c=  0.42370810)
    11a ->  15a  :     0.039708 (c= -0.19926882)
    11a ->  16a  :     0.014444 (c= -0.12018331)
    12a ->  15a  :     0.018578 (c= -0.13630140)
    12a ->  16a  :     0.038245 (c=  0.19556282)
    13a ->  15a  :     0.115340 (c=  0.33961714)
     9b ->  22b  :     0.117741 (c= -0.34313438)
    10b ->  23b  :     0.131110 (c= -0.36209113)
    11b ->  22b  :     0.036059 (c=  0.18989157)
    12b ->  21b  :     0.045705 (c= -0.21378821)
    13b ->  21b  :     0.073958 (c= -0.27195230)

STATE 12:  E=   0.273818 au      7.451 eV    60096.2 cm**-1 <S**2> =   2.736937
    11a ->  15a  :     0.059431 (c=  0.24378522)
    11a ->  16a  :     0.089894 (c= -0.29982409)
    11a ->  17a  :     0.039212 (c=  0.19802093)
    12a ->  15a  :     0.169274 (c= -0.41142974)
    12a ->  16a  :     0.034852 (c= -0.18668794)
    13a ->  16a  :     0.048748 (c=  0.22078904)
    13a ->  17a  :     0.124718 (c=  0.35315395)
    11b ->  21b  :     0.135155 (c= -0.36763408)
    11b ->  22b  :     0.013214 (c=  0.11495031)
    12b ->  21b  :     0.024523 (c= -0.15659810)
    12b ->  22b  :     0.084618 (c= -0.29089159)
    12b ->  23b  :     0.021216 (c= -0.14565784)
    13b ->  22b  :     0.027395 (c= -0.16551423)
    13b ->  23b  :     0.097444 (c=  0.31215983)


-----------------------------
TD-DFT/TDA-EXCITATION SPECTRA
-----------------------------

Center of mass = (  5.2812, -5.3025,  0.0599)
Calculating the Dipole integrals                  ... done
Transforming integrals                            ... done
Calculating the Linear Momentum integrals         ... done
Transforming integrals                            ... done
Calculating angular momentum integrals            ... done
Transforming integrals                            ... done

-----------------------------------------------------------------------------
         ABSORPTION SPECTRUM VIA TRANSITION ELECTRIC DIPOLE MOMENTS
-----------------------------------------------------------------------------
State   Energy    Wavelength  fosc         T2        TX        TY        TZ  
        (cm-1)      (nm)                 (au**2)    (au)      (au)      (au) 
-----------------------------------------------------------------------------
   1   17572.6    569.1   0.000000000   0.00000   0.00000  -0.00000   0.00000
   2   17572.6    569.1   0.000000000   0.00000   0.00000   0.00000   0.00000
   3   17572.7    569.1   0.000000000   0.00000  -0.00000  -0.00000  -0.00000
   4   17572.7    569.1   0.000000000   0.00000  -0.00000   0.00000  -0.00000
   5   17572.8    569.1   0.000000000   0.00000  -0.00000  -0.00000   0.00000
   6   44796.0    223.2   0.210333967   1.54577  -0.23965  -0.91047   0.81202
   7   44796.0    223.2   0.210330797   1.54575   1.07864  -0.54475  -0.29246
   8   44796.1    223.2   0.210330713   1.54575  -0.56996  -0.64811  -0.89490
   9   53742.3    186.1   0.000000000   0.00000   0.00000   0.00000  -0.00000
  10   60096.1    166.4   0.000432109   0.00237  -0.03923  -0.01470  -0.02474
  11   60096.1    166.4   0.000432119   0.00237   0.02737  -0.03199  -0.02439
  12   60096.2    166.4   0.000432574   0.00237  -0.00890  -0.03360   0.03408

-----------------------------------------------------------------------------
         ABSORPTION SPECTRUM VIA TRANSITION VELOCITY DIPOLE MOMENTS
-----------------------------------------------------------------------------
State   Energy    Wavelength   fosc        P2         PX        PY        PZ  
        (cm-1)      (nm)                 (au**2)     (au)      (au)      (au) 
-----------------------------------------------------------------------------
   1   17572.6    569.1   0.000000000   0.00000  -0.00000   0.00000  -0.00000
   2   17572.6    569.1   0.000000000   0.00000  -0.00000  -0.00000  -0.00000
   3   17572.7    569.1   0.000000000   0.00000   0.00000   0.00000   0.00000
   4   17572.7    569.1   0.000000000   0.00000   0.00000  -0.00000   0.00000
   5   17572.8    569.1   0.000000000   0.00000   0.00000   0.00000  -0.00000
   6   44796.0    223.2   0.011044036   0.00338   0.01121   0.04258  -0.03798
   7   44796.0    223.2   0.011043614   0.00338  -0.05045   0.02548   0.01368
   8   44796.1    223.2   0.011043603   0.00338   0.02666   0.03031   0.04185
   9   53742.3    186.1   0.000000000   0.00000  -0.00000  -0.00000   0.00000
  10   60096.1    166.4   0.001374274   0.00056   0.01916   0.00718   0.01208
  11   60096.1    166.4   0.001374278   0.00056  -0.01336   0.01562   0.01191
  12   60096.2    166.4   0.001374472   0.00056   0.00434   0.01640  -0.01664

-------------------------------------------------------------------
                             CD SPECTRUM
-------------------------------------------------------------------
State  Energy     Wavelength     R         MX        MY        MZ   
       (cm-1)       (nm)     (1e40*cgs)   (au)      (au)      (au)  
-------------------------------------------------------------------
   1   17572.6    569.1     -0.00000  -0.00000   0.00000   0.00000
   2   17572.6    569.1     -0.00000  -0.00000   0.00000  -0.00000
   3   17572.7    569.1      0.00000   0.00001  -0.00000   0.00000
   4   17572.7    569.1     -0.00000  -0.00000  -0.00001  -0.00001
   5   17572.8    569.1      0.00000  -0.00000  -0.00000  -0.00000
   6   44796.0    223.2     -0.00000   0.00000  -0.00000  -0.00000
   7   44796.0    223.2      0.00000   0.00000   0.00000   0.00000
   8   44796.1    223.2     -0.00000   0.00000  -0.00000  -0.00000
   9   53742.3    186.1      0.00000   0.00000  -0.00000  -0.00000
  10   60096.1    166.4      0.00000  -0.00000   0.00000   0.00000
  11   60096.1    166.4     -0.00000  -0.00000  -0.00000  -0.00000
  12   60096.2    166.4     -0.00000  -0.00000   0.00000   0.00000

-------------------------------------------------------------------
         CD SPECTRUM VIA TRANSITION VELOCITY DIPOLE MOMENTS        
-------------------------------------------------------------------
State  Energy     Wavelength     R         MX        MY        MZ   
       (cm-1)       (nm)     (1e40*cgs)   (au)      (au)      (au)  
-------------------------------------------------------------------
   1   17572.6    569.1     -0.00000  -0.00000   0.00000   0.00000
   2   17572.6    569.1      0.00000  -0.00000   0.00000  -0.00000
   3   17572.7    569.1     -0.00000   0.00001  -0.00000   0.00000
   4   17572.7    569.1      0.00000  -0.00000  -0.00001  -0.00001
   5   17572.8    569.1     -0.00000  -0.00000  -0.00000  -0.00000
   6   44796.0    223.2      0.00000   0.00000  -0.00000  -0.00000
   7   44796.0    223.2     -0.00000   0.00000   0.00000   0.00000
   8   44796.1    223.2      0.00000   0.00000  -0.00000  -0.00000
   9   53742.3    186.1     -0.00000   0.00000  -0.00000  -0.00000
  10   60096.1    166.4     -0.00000  -0.00000   0.00000   0.00000
  11   60096.1    166.4      0.00000  -0.00000  -0.00000  -0.00000
  12   60096.2    166.4     -0.00000  -0.00000   0.00000   0.00000

Total run time:        2.415 sec

           *** ORCA-CIS/TD-DFT FINISHED WITHOUT ERROR ***

Maximum memory used throughout the entire CIS-calculation: 51.4 MB

-----------------------
CIS/TD-DFT TOTAL ENERGY
-----------------------

    E(SCF)  =  -1640.446141789 Eh
    DE(CIS) =      0.080066627 Eh (Root  1)
    ----------------------------- ---------
    E(tot)  =  -1640.366075161 Eh


-------------------------   --------------------
FINAL SINGLE POINT ENERGY     -1640.366075161420
-------------------------   --------------------


                            ***************************************
                            *     ORCA property calculations      *
                            ***************************************

                                    ---------------------
                                    Active property flags
                                    ---------------------
   (+) Dipole Moment


------------------------------------------------------------------------------
                       ORCA ELECTRIC PROPERTIES CALCULATION
------------------------------------------------------------------------------

Dipole Moment Calculation                       ... on
Quadrupole Moment Calculation                   ... off
Polarizability Calculation                      ... off
GBWName                                         ... cu0.gbw
Electron density                                ... cu0.scfp
The origin for moment calculation is the CENTER OF MASS  = ( 5.281178, -5.302508  0.059945)

-------------
DIPOLE MOMENT
-------------
                                X             Y             Z
Electronic contribution:      0.00000       0.00001      -0.00001
Nuclear contribution   :      0.00000      -0.00000       0.00000
                        -----------------------------------------
Total Dipole Moment    :      0.00000       0.00001      -0.00001
                        -----------------------------------------
Magnitude (a.u.)       :      0.00001
Magnitude (Debye)      :      0.00002



--------------------
Rotational spectrum 
--------------------
 
Rotational constants in cm-1:     0.000000     0.000000     0.000000 
Rotational constants in MHz :     0.000000     0.000000     0.000000 

 Dipole components along the rotational axes: 
x,y,z [a.u.] :     0.000006     0.000001    -0.000007 
x,y,z [Debye]:     0.000016     0.000003    -0.000017 

 

Timings for individual modules:

Sum of individual times         ...        9.913 sec (=   0.165 min)
GTO integral calculation        ...        0.744 sec (=   0.012 min)   7.5 %
SCF iterations                  ...        6.216 sec (=   0.104 min)  62.7 %
CIS module                      ...        2.953 sec (=   0.049 min)  29.8 %
                             ****ORCA TERMINATED NORMALLY****
TOTAL RUN TIME: 0 days 0 hours 0 minutes 10 seconds 597 msec
