
                                 *****************
                                 * O   R   C   A *
                                 *****************

                                            #,                                       
                                            ###                                      
                                            ####                                     
                                            #####                                    
                                            ######                                   
                                           ########,                                 
                                     ,,################,,,,,                         
                               ,,#################################,,                 
                          ,,##########################################,,             
                       ,#########################################, ''#####,          
                    ,#############################################,,   '####,        
                  ,##################################################,,,,####,       
                ,###########''''           ''''###############################       
              ,#####''   ,,,,##########,,,,          '''####'''          '####       
            ,##' ,,,,###########################,,,                        '##       
           ' ,,###''''                  '''############,,,                           
         ,,##''                                '''############,,,,        ,,,,,,###''
      ,#''                                            '''#######################'''  
     '                                                          ''''####''''         
             ,#######,   #######,   ,#######,      ##                                
            ,#'     '#,  ##    ##  ,#'     '#,    #''#        ######   ,####,        
            ##       ##  ##   ,#'  ##            #'  '#       #        #'  '#        
            ##       ##  #######   ##           ,######,      #####,   #    #        
            '#,     ,#'  ##    ##  '#,     ,#' ,#      #,         ##   #,  ,#        
             '#######'   ##     ##  '#######'  #'      '#     #####' # '####'        



                  #######################################################
                  #                        -***-                        #
                  #          Department of theory and spectroscopy      #
                  #    Directorship and core code : Frank Neese         #
                  #        Max Planck Institute fuer Kohlenforschung    #
                  #                Kaiser Wilhelm Platz 1               #
                  #                 D-45470 Muelheim/Ruhr               #
                  #                      Germany                        #
                  #                                                     #
                  #                  All rights reserved                #
                  #                        -***-                        #
                  #######################################################


                         Program Version 5.0.2 -  RELEASE  -


 With contributions from (in alphabetic order):
   Daniel Aravena         : Magnetic Suceptibility
   Michael Atanasov       : Ab Initio Ligand Field Theory (pilot matlab implementation)
   Alexander A. Auer      : GIAO ZORA, VPT2 properties, NMR spectrum
   Ute Becker             : Parallelization
   Giovanni Bistoni       : ED, misc. LED, open-shell LED, HFLD
   Martin Brehm           : Molecular dynamics
   Dmytro Bykov           : SCF Hessian
   Vijay G. Chilkuri      : MRCI spin determinant printing, contributions to CSF-ICE
   Dipayan Datta          : RHF DLPNO-CCSD density
   Achintya Kumar Dutta   : EOM-CC, STEOM-CC
   Dmitry Ganyushin       : Spin-Orbit,Spin-Spin,Magnetic field MRCI
   Miquel Garcia          : C-PCM and meta-GGA Hessian, CC/C-PCM, Gaussian charge scheme
   Yang Guo               : DLPNO-NEVPT2, F12-NEVPT2, CIM, IAO-localization
   Andreas Hansen         : Spin unrestricted coupled pair/coupled cluster methods
   Benjamin Helmich-Paris : MC-RPA, TRAH-SCF, COSX integrals
   Lee Huntington         : MR-EOM, pCC
   Robert Izsak           : Overlap fitted RIJCOSX, COSX-SCS-MP3, EOM
   Marcus Kettner         : VPT2
   Christian Kollmar      : KDIIS, OOCD, Brueckner-CCSD(T), CCSD density, CASPT2, CASPT2-K
   Simone Kossmann        : Meta GGA functionals, TD-DFT gradient, OOMP2, MP2 Hessian
   Martin Krupicka        : Initial AUTO-CI
   Lucas Lang             : DCDCAS
   Marvin Lechner         : AUTO-CI (C++ implementation), FIC-MRCC
   Dagmar Lenk            : GEPOL surface, SMD
   Dimitrios Liakos       : Extrapolation schemes; Compound Job, initial MDCI parallelization
   Dimitrios Manganas     : Further ROCIS development; embedding schemes
   Dimitrios Pantazis     : SARC Basis sets
   Anastasios Papadopoulos: AUTO-CI, single reference methods and gradients
   Taras Petrenko         : DFT Hessian,TD-DFT gradient, ASA, ECA, R-Raman, ABS, FL, XAS/XES, NRVS
   Peter Pinski           : DLPNO-MP2, DLPNO-MP2 Gradient
   Christoph Reimann      : Effective Core Potentials
   Marius Retegan         : Local ZFS, SOC
   Christoph Riplinger    : Optimizer, TS searches, QM/MM, DLPNO-CCSD(T), (RO)-DLPNO pert. Triples
   Tobias Risthaus        : Range-separated hybrids, TD-DFT gradient, RPA, STAB
   Michael Roemelt        : Original ROCIS implementation
   Masaaki Saitow         : Open-shell DLPNO-CCSD energy and density
   Barbara Sandhoefer     : DKH picture change effects
   Avijit Sen             : IP-ROCIS
   Kantharuban Sivalingam : CASSCF convergence, NEVPT2, FIC-MRCI
   Bernardo de Souza      : ESD, SOC TD-DFT
   Georgi Stoychev        : AutoAux, RI-MP2 NMR, DLPNO-MP2 response
   Willem Van den Heuvel  : Paramagnetic NMR
   Boris Wezisla          : Elementary symmetry handling
   Frank Wennmohs         : Technical directorship


 We gratefully acknowledge several colleagues who have allowed us to
 interface, adapt or use parts of their codes:
   Stefan Grimme, W. Hujo, H. Kruse, P. Pracht,  : VdW corrections, initial TS optimization,
                  C. Bannwarth, S. Ehlert          DFT functionals, gCP, sTDA/sTD-DF
   Ed Valeev, F. Pavosevic, A. Kumar             : LibInt (2-el integral package), F12 methods
   Garnet Chan, S. Sharma, J. Yang, R. Olivares  : DMRG
   Ulf Ekstrom                                   : XCFun DFT Library
   Mihaly Kallay                                 : mrcc  (arbitrary order and MRCC methods)
   Jiri Pittner, Ondrej Demel                    : Mk-CCSD
   Frank Weinhold                                : gennbo (NPA and NBO analysis)
   Christopher J. Cramer and Donald G. Truhlar   : smd solvation model
   Lars Goerigk                                  : TD-DFT with DH, B97 family of functionals
   V. Asgeirsson, H. Jonsson                     : NEB implementation
   FAccTs GmbH                                   : IRC, NEB, NEB-TS, DLPNO-Multilevel, CI-OPT
                                                   MM, QMMM, 2- and 3-layer-ONIOM, Crystal-QMMM,
                                                   LR-CPCM, SF, NACMEs, symmetry and pop. for TD-DFT,
                                                   nearIR, NL-DFT gradient (VV10), updates on ESD,
                                                   ML-optimized integration grids
   S Lehtola, MJT Oliveira, MAL Marques          : LibXC Library
   Liviu Ungur et al                             : ANISO software


 Your calculation uses the libint2 library for the computation of 2-el integrals
 For citations please refer to: http://libint.valeyev.net

 Your ORCA version has been built with support for libXC version: 5.1.0
 For citations please refer to: https://tddft.org/programs/libxc/

 This ORCA versions uses:
   CBLAS   interface :  Fast vector & matrix operations
   LAPACKE interface :  Fast linear algebra routines
   SCALAPACK package :  Parallel linear algebra routines
   Shared memory     :  Shared parallel matrices
   BLAS/LAPACK       :  OpenBLAS 0.3.15  USE64BITINT DYNAMIC_ARCH NO_AFFINITY Haswell SINGLE_THREADED
        Core in use  :  Haswell
   Copyright (c) 2011-2014, The OpenBLAS Project


Your calculation utilizes the atom-pairwise dispersion correction
with the Becke-Johnson damping scheme (D3BJ)
Cite in your paper:
S.Grimme, S.Ehrlich, L.Goerigk, J Comput Chem, (2011), 32, 1456–1465 
S.Grimme, J.Antony, S.Ehrlich and H.Krieg, J.Chem.Phys., 132, (2010), 154104 
   

================================================================================

----- Orbital basis set information -----
Your calculation utilizes the basis: def2-TZVP
   F. Weigend and R. Ahlrichs, Phys. Chem. Chem. Phys. 7, 3297 (2005).

----- AuxJ basis set information -----
Your calculation utilizes the auxiliary basis: def2/J
   F. Weigend, Phys. Chem. Chem. Phys. 8, 1057 (2006).

================================================================================
                                        WARNINGS
                       Please study these warnings very carefully!
================================================================================


INFO   : the flag for use of the SHARK integral package has been found!

Your calculation utilizes the atom-pairwise dispersion correction
with the Becke-Johnson damping scheme (D3BJ)
Cite in your paper:
S.Grimme, S.Ehrlich, L.Goerigk, J Comput Chem, (2011), 32, 1456–1465 
S.Grimme, J.Antony, S.Ehrlich and H.Krieg, J.Chem.Phys., 132, (2010), 154104 
   

================================================================================

----- Orbital basis set information -----
Your calculation utilizes the basis: def2-TZVP
   F. Weigend and R. Ahlrichs, Phys. Chem. Chem. Phys. 7, 3297 (2005).

----- AuxJ basis set information -----
Your calculation utilizes the auxiliary basis: def2/J
   F. Weigend, Phys. Chem. Chem. Phys. 8, 1057 (2006).

================================================================================
                                        WARNINGS
                       Please study these warnings very carefully!
================================================================================


WARNING: MOInp is set but Guess=PModel. MOInp will be ignored!
         To read the initial guess from a file you must also specify
         'MORead' in the simple input or 'Guess MORead' in the %scf block


INFO   : the flag for use of the SHARK integral package has been found!

Your calculation utilizes the atom-pairwise dispersion correction
with the Becke-Johnson damping scheme (D3BJ)
Cite in your paper:
S.Grimme, S.Ehrlich, L.Goerigk, J Comput Chem, (2011), 32, 1456–1465 
S.Grimme, J.Antony, S.Ehrlich and H.Krieg, J.Chem.Phys., 132, (2010), 154104 
   

================================================================================

----- Orbital basis set information -----
Your calculation utilizes the basis: def2-TZVP
   F. Weigend and R. Ahlrichs, Phys. Chem. Chem. Phys. 7, 3297 (2005).

----- AuxJ basis set information -----
Your calculation utilizes the auxiliary basis: def2/J
   F. Weigend, Phys. Chem. Chem. Phys. 8, 1057 (2006).

================================================================================
                                        WARNINGS
                       Please study these warnings very carefully!
================================================================================


WARNING: MOInp is set but Guess=PModel. MOInp will be ignored!
         To read the initial guess from a file you must also specify
         'MORead' in the simple input or 'Guess MORead' in the %scf block


INFO   : the flag for use of the SHARK integral package has been found!

Your calculation utilizes the atom-pairwise dispersion correction
with the Becke-Johnson damping scheme (D3BJ)
Cite in your paper:
S.Grimme, S.Ehrlich, L.Goerigk, J Comput Chem, (2011), 32, 1456–1465 
S.Grimme, J.Antony, S.Ehrlich and H.Krieg, J.Chem.Phys., 132, (2010), 154104 
   

================================================================================

----- Orbital basis set information -----
Your calculation utilizes the basis: def2-TZVP
   F. Weigend and R. Ahlrichs, Phys. Chem. Chem. Phys. 7, 3297 (2005).

----- AuxJ basis set information -----
Your calculation utilizes the auxiliary basis: def2/J
   F. Weigend, Phys. Chem. Chem. Phys. 8, 1057 (2006).

================================================================================
                                        WARNINGS
                       Please study these warnings very carefully!
================================================================================


WARNING: MOInp is set but Guess=PModel. MOInp will be ignored!
         To read the initial guess from a file you must also specify
         'MORead' in the simple input or 'Guess MORead' in the %scf block


INFO   : the flag for use of the SHARK integral package has been found!

Your calculation utilizes the atom-pairwise dispersion correction
with the Becke-Johnson damping scheme (D3BJ)
Cite in your paper:
S.Grimme, S.Ehrlich, L.Goerigk, J Comput Chem, (2011), 32, 1456–1465 
S.Grimme, J.Antony, S.Ehrlich and H.Krieg, J.Chem.Phys., 132, (2010), 154104 
   

================================================================================

----- Orbital basis set information -----
Your calculation utilizes the basis: def2-TZVP
   F. Weigend and R. Ahlrichs, Phys. Chem. Chem. Phys. 7, 3297 (2005).

----- AuxJ basis set information -----
Your calculation utilizes the auxiliary basis: def2/J
   F. Weigend, Phys. Chem. Chem. Phys. 8, 1057 (2006).

================================================================================
                                        WARNINGS
                       Please study these warnings very carefully!
================================================================================


WARNING: MOInp is set but Guess=PModel. MOInp will be ignored!
         To read the initial guess from a file you must also specify
         'MORead' in the simple input or 'Guess MORead' in the %scf block


INFO   : the flag for use of the SHARK integral package has been found!

================================================================================
                                       INPUT FILE
================================================================================
NAME = ex.inp
|  1> ! PBE D3 def2-TZVP opt PModel NOAUTOSTART cpcm(water)
|  2> 
|  3> %pal nprocs=16 end
|  4> %geom maxiter=200 end
|  5> %base "1_M0001"
|  6> 
|  7> * xyz 1 1
|  8> C       -1.224823     -1.587242      0.220921
|  9> C       -0.017892      0.791629     -0.642482
| 10> C       -1.950120     -0.403966      0.185336
| 11> C        0.121085     -1.577659     -0.164105
| 12> C        0.736243     -0.388929     -0.594533
| 13> C       -1.345335      0.773733     -0.239305
| 14> O       -3.261213     -0.341801      0.559007
| 15> O       -2.048891      1.941679     -0.258944
| 16> C        2.199890     -0.366462     -0.959628
| 17> C        3.105051     -0.278056      0.271559
| 18> N        2.816475      0.949776      1.061500
| 19> H        1.843695      0.946388      1.405002
| 20> H        3.427806      1.024026      1.884278
| 21> H        2.935367      1.805323      0.503860
| 22> H       -1.684210     -2.518465      0.541070
| 23> H        0.403518      1.727905     -0.999767
| 24> H        0.676081     -2.514793     -0.137679
| 25> H       -3.584019     -1.243249      0.736823
| 26> H       -2.961362      1.693307     -0.000448
| 27> H        2.402267      0.475666     -1.633564
| 28> H        2.443113     -1.272673     -1.527915
| 29> H        2.960421     -1.124636      0.950005
| 30> H        4.158241     -0.224542     -0.019249
| 31> *
| 32> 
| 33> $new_job
| 34> 
| 35> ! PBE D3 def2-TZVP opt PModel NOAUTOSTART cpcm(water)
| 36> 
| 37> %pal nprocs=16 end
| 38> %geom maxiter=200 end
| 39> %base "2_M0002"
| 40> 
| 41> * xyz 1 1
| 42> C        1.293053      1.584692     -0.120584
| 43> C       -0.021154     -0.796401      0.558269
| 44> C        1.972497      0.375150     -0.152591
| 45> C       -0.060079      1.600914      0.239173
| 46> C       -0.734320      0.410591      0.567578
| 47> C        1.315328     -0.802827      0.182827
| 48> O        3.288363      0.287570     -0.503222
| 49> O        1.976877     -1.994795      0.146051
| 50> C       -2.198861      0.441011      0.936665
| 51> C       -3.064327     -0.516537      0.110481
| 52> N       -2.877334     -0.277120     -1.346384
| 53> H       -1.895440     -0.437300     -1.619560
| 54> H       -3.455176     -0.913388     -1.910094
| 55> H       -3.113406      0.686489     -1.613784
| 56> H        1.794400      2.517452     -0.364044
| 57> H       -0.476087     -1.739036      0.852323
| 58> H       -0.573714      2.561196      0.274344
| 59> H        3.649250      1.185516     -0.611564
| 60> H        2.902090     -1.766172     -0.082955
| 61> H       -2.589913      1.459076      0.813909
| 62> H       -2.297332      0.197279      2.001363
| 63> H       -2.811007     -1.565910      0.287992
| 64> H       -4.127075     -0.367127      0.323228
| 65> *
| 66> 
| 67> $new_job
| 68> 
| 69> ! PBE D3 def2-TZVP opt PModel NOAUTOSTART cpcm(water)
| 70> 
| 71> %pal nprocs=16 end
| 72> %geom maxiter=200 end
| 73> %base "3_M0003"
| 74> 
| 75> * xyz 1 1
| 76> C       -1.052971     -1.610853      0.227945
| 77> C       -0.155273      1.042331      0.386444
| 78> C       -1.900177     -0.558785     -0.082300
| 79> C        0.259072     -1.340029      0.616835
| 80> C        0.724848     -0.014189      0.680298
| 81> C       -1.463991      0.758846      0.008962
| 82> O       -3.176831     -0.835219     -0.472397
| 83> O       -2.360382      1.743253     -0.293590
| 84> C        2.170086      0.262382      1.019243
| 85> C        2.996341      0.642764     -0.212947
| 86> N        2.935393     -0.424039     -1.248695
| 87> H        1.964776     -0.577324     -1.563597
| 88> H        3.486702     -0.176057     -2.080253
| 89> H        3.285887     -1.324531     -0.898185
| 90> H       -1.421674     -2.632627      0.179154
| 91> H        0.177729      2.074669      0.454029
| 92> H        0.901714     -2.178378      0.880389
| 93> H       -3.606289      0.034991     -0.597921
| 94> H       -2.015948      2.601366      0.008641
| 95> H        2.614505     -0.615261      1.505430
| 96> H        2.216246      1.073063      1.756708
| 97> H        2.627447      1.556893     -0.688467
| 98> H        4.051243      0.772409      0.045956
| 99> *
|100> 
|101> $new_job
|102> 
|103> ! PBE D3 def2-TZVP opt PModel NOAUTOSTART cpcm(water)
|104> 
|105> %pal nprocs=16 end
|106> %geom maxiter=200 end
|107> %base "4_M0004"
|108> 
|109> * xyz 1 1
|110> C       -1.005565     -1.624533      0.076505
|111> C       -0.194514      1.030187      0.473013
|112> C       -1.891116     -0.578507     -0.127987
|113> C        0.301543     -1.346076      0.477730
|114> C        0.727069     -0.016785      0.653406
|115> C       -1.498063      0.738452      0.083514
|116> O       -3.162476     -0.861137     -0.530289
|117> O       -2.430165      1.716300     -0.114208
|118> C        2.161865      0.284862      1.018629
|119> C        3.166381     -0.209158     -0.028304
|120> N        2.839541      0.330817     -1.376333
|121> H        2.849026      1.358122     -1.396175
|122> H        3.503354     -0.003076     -2.086928
|123> H        1.899330      0.028491     -1.675538
|124> H       -1.340000     -2.649822     -0.062740
|125> H        0.101357      2.063126      0.636350
|126> H        0.971161     -2.184901      0.660773
|127> H       -3.622842      0.001218     -0.570328
|128> H       -2.123450      2.544319      0.294236
|129> H        2.384223     -0.177173      1.988098
|130> H        2.292698      1.365763      1.155292
|131> H        4.180086      0.125506      0.210995
|132> H        3.163797     -1.299249     -0.122765
|133> *
|134> 
|135> $new_job
|136> 
|137> ! PBE D3 def2-TZVP opt PModel NOAUTOSTART cpcm(water)
|138> 
|139> %pal nprocs=16 end
|140> %geom maxiter=200 end
|141> %base "5_M0005"
|142> 
|143> * xyz 1 1
|144> C       -1.447298     -1.576422     -0.061973
|145> C       -0.169383      0.884365      0.349737
|146> C       -2.169412     -0.391810     -0.118145
|147> C       -0.072080     -1.529517      0.197274
|148> C        0.578034     -0.300566      0.405171
|149> C       -1.530497      0.826281      0.084998
|150> O       -3.511232     -0.368283     -0.369633
|151> O       -2.237172      1.991738      0.025145
|152> C        2.060437     -0.243537      0.661100
|153> C        2.818311      0.182206     -0.594606
|154> N        4.274374      0.267683     -0.306472
|155> H        4.660055     -0.636004     -0.002273
|156> H        4.794889      0.555021     -1.146349
|157> H        4.476642      0.960680      0.426877
|158> H       -1.931280     -2.536898     -0.214013
|159> H        0.285365      1.857301      0.516584
|160> H        0.478661     -2.467543      0.242972
|161> H       -3.833228     -1.283417     -0.448416
|162> H       -3.161473      1.716606     -0.147217
|163> H        2.419916     -1.221713      1.004746
|164> H        2.255936      0.456752      1.483363
|165> H        2.699168     -0.540426     -1.408302
|166> H        2.513296      1.172218     -0.948103
|167> *
|168> 
|169> 
|170> 
|171> 
|172>                          ****END OF INPUT****
================================================================================


                 $$$$$$$$$$$$$$$$$$$$$$$$$$$$$$$$$$$$$$$$$$$$$$ 
                 $ THERE ARE  5 JOBS TO BE PROCESSED THIS RUN $
                 $$$$$$$$$$$$$$$$$$$$$$$$$$$$$$$$$$$$$$$$$$$$$$ 




                 $$$$$$$$$$$$$$$$  JOB NUMBER  1 $$$$$$$$$$$$$$


                       *****************************
                       * Geometry Optimization Run *
                       *****************************

Geometry optimization settings:
Update method            Update   .... BFGS
Choice of coordinates    CoordSys .... Z-matrix Internals
Initial Hessian          InHess   .... Almoef's Model

Convergence Tolerances:
Energy Change            TolE     ....  5.0000e-06 Eh
Max. Gradient            TolMAXG  ....  3.0000e-04 Eh/bohr
RMS Gradient             TolRMSG  ....  1.0000e-04 Eh/bohr
Max. Displacement        TolMAXD  ....  4.0000e-03 bohr
RMS Displacement         TolRMSD  ....  2.0000e-03 bohr
Strict Convergence                ....  False
------------------------------------------------------------------------------
                        ORCA OPTIMIZATION COORDINATE SETUP
------------------------------------------------------------------------------

The optimization will be done in new redundant internal coordinates
Making redundant internal coordinates   ...  (new redundants) done
Evaluating the initial hessian          ...  (Almloef) done
Evaluating the coordinates              ...  done
Calculating the B-matrix                .... done
Calculating the G-matrix                .... done
Diagonalizing the G-matrix              .... done
Small eigenvalue found = 1.301e-02
The first mode is                       ....   50
The number of degrees of freedom        ....   63

    -----------------------------------------------------------------
                    Redundant Internal Coordinates


    -----------------------------------------------------------------
         Definition                    Initial Value    Approx d2E/dq
    -----------------------------------------------------------------
      1. B(C   2,C   0)                  1.3883         0.628638   
      2. B(C   3,C   0)                  1.3999         0.602414   
      3. B(C   4,C   3)                  1.4060         0.589184   
      4. B(C   4,C   1)                  1.4017         0.598532   
      5. B(C   5,C   2)                  1.3903         0.624005   
      6. B(C   5,C   1)                  1.3874         0.630711   
      7. B(O   6,C   2)                  1.3647         0.614057   
      8. B(O   7,C   5)                  1.3636         0.616530   
      9. B(C   8,C   4)                  1.5087         0.404036   
     10. B(C   9,C   8)                  1.5307         0.372655   
     11. B(N  10,C   9)                  1.4882         0.390069   
     12. B(H  11,N  10)                  1.0317         0.399623   
     13. B(H  12,N  10)                  1.0277         0.405442   
     14. B(H  13,N  10)                  1.0281         0.404822   
     15. B(H  14,C   0)                  1.0866         0.364621   
     16. B(H  15,C   1)                  1.0871         0.363917   
     17. B(H  16,C   3)                  1.0895         0.360805   
     18. B(H  17,O   6)                  0.9739         0.494119   
     19. B(H  18,O   7)                  0.9804         0.482479   
     20. B(H  19,C   8)                  1.0974         0.350420   
     21. B(H  20,C   8)                  1.0970         0.351007   
     22. B(H  21,C   9)                  1.0945         0.354211   
     23. B(H  22,C   9)                  1.0939         0.354963   
     24. A(C   3,C   0,H  14)          119.5616         0.351937   
     25. A(C   2,C   0,C   3)          119.2998         0.432901   
     26. A(C   2,C   0,H  14)          121.1386         0.354485   
     27. A(C   4,C   1,H  15)          121.8741         0.351438   
     28. A(C   5,C   1,H  15)          118.5213         0.354567   
     29. A(C   4,C   1,C   5)          119.6005         0.432654   
     30. A(C   0,C   2,C   5)          120.1672         0.435653   
     31. A(C   0,C   2,O   6)          122.2558         0.431552   
     32. A(C   5,C   2,O   6)          117.5769         0.430979   
     33. A(C   0,C   3,H  16)          118.5028         0.351312   
     34. A(C   0,C   3,C   4)          120.7060         0.427893   
     35. A(C   4,C   3,H  16)          120.7841         0.349997   
     36. A(C   3,C   4,C   8)          120.7407         0.398598   
     37. A(C   1,C   4,C   8)          120.0757         0.399703   
     38. A(C   1,C   4,C   3)          119.1549         0.427397   
     39. A(C   1,C   5,C   2)          121.0549         0.435911   
     40. A(C   2,C   5,O   7)          120.3626         0.431291   
     41. A(C   1,C   5,O   7)          118.5812         0.432120   
     42. A(C   2,O   6,H  17)          109.0426         0.366287   
     43. A(C   5,O   7,H  18)          105.0360         0.365046   
     44. A(C   9,C   8,H  19)          109.9125         0.322741   
     45. A(C   4,C   8,H  19)          109.8130         0.327058   
     46. A(C   4,C   8,C   9)          112.3284         0.368107   
     47. A(C   4,C   8,H  20)          109.1580         0.327148   
     48. A(H  19,C   8,H  20)          105.9562         0.288440   
     49. A(C   9,C   8,H  20)          109.4687         0.322830   
     50. A(C   8,C   9,N  10)          111.0954         0.363615   
     51. A(H  21,C   9,H  22)          109.2599         0.289435   
     52. A(N  10,C   9,H  22)          106.7043         0.323911   
     53. A(C   8,C   9,H  22)          110.9978         0.323424   
     54. A(N  10,C   9,H  21)          106.4695         0.323798   
     55. A(C   8,C   9,H  21)          112.0723         0.323312   
     56. A(C   9,N  10,H  11)          110.9077         0.327485   
     57. A(H  12,N  10,H  13)          107.7772         0.296965   
     58. A(H  11,N  10,H  13)          106.9996         0.296285   
     59. A(C   9,N  10,H  13)          112.0997         0.328184   
     60. A(H  11,N  10,H  12)          107.1317         0.296357   
     61. A(C   9,N  10,H  12)          111.6667         0.328267   
     62. D(O   6,C   2,C   0,C   3)   -179.3802         0.027393   
     63. D(O   6,C   2,C   0,H  14)      0.6816         0.027393   
     64. D(C   5,C   2,C   0,C   3)      0.5234         0.027393   
     65. D(C   5,C   2,C   0,H  14)   -179.4148         0.027393   
     66. D(H  16,C   3,C   0,H  14)      0.3507         0.025029   
     67. D(C   4,C   3,C   0,C   2)     -0.5463         0.025029   
     68. D(H  16,C   3,C   0,C   2)   -179.5885         0.025029   
     69. D(C   4,C   3,C   0,H  14)    179.3929         0.025029   
     70. D(C   1,C   4,C   3,H  16)    178.6280         0.023886   
     71. D(C   8,C   4,C   1,H  15)      4.0303         0.024690   
     72. D(C   1,C   4,C   3,C   0)     -0.3923         0.023886   
     73. D(C   3,C   4,C   1,C   5)      1.3530         0.024690   
     74. D(C   8,C   4,C   1,C   5)   -176.7128         0.024690   
     75. D(C   8,C   4,C   3,C   0)    177.6603         0.023886   
     76. D(C   3,C   4,C   1,H  15)   -177.9039         0.024690   
     77. D(C   8,C   4,C   3,H  16)     -3.3195         0.023886   
     78. D(O   7,C   5,C   2,O   6)      0.7833         0.026965   
     79. D(C   1,C   5,C   2,O   6)   -179.6400         0.026965   
     80. D(O   7,C   5,C   1,H  15)     -2.5334         0.027585   
     81. D(O   7,C   5,C   1,C   4)    178.1847         0.027585   
     82. D(C   1,C   5,C   2,C   0)      0.4520         0.026965   
     83. D(O   7,C   5,C   2,C   0)   -179.1248         0.026965   
     84. D(C   2,C   5,C   1,H  15)    177.8824         0.027585   
     85. D(C   2,C   5,C   1,C   4)     -1.3994         0.027585   
     86. D(H  17,O   6,C   2,C   5)    173.7897         0.027626   
     87. D(H  17,O   6,C   2,C   0)     -6.3043         0.027626   
     88. D(H  18,O   7,C   5,C   2)     -4.1402         0.027865   
     89. D(H  18,O   7,C   5,C   1)    176.2727         0.027865   
     90. D(H  19,C   8,C   4,C   1)    -24.9824         0.012105   
     91. D(C   9,C   8,C   4,C   3)    -80.3793         0.012105   
     92. D(C   9,C   8,C   4,C   1)     97.6554         0.012105   
     93. D(H  20,C   8,C   4,C   3)     41.2296         0.012105   
     94. D(H  20,C   8,C   4,C   1)   -140.7357         0.012105   
     95. D(H  19,C   8,C   4,C   3)    156.9829         0.012105   
     96. D(H  22,C   9,C   8,H  19)    -55.2456         0.011092   
     97. D(H  22,C   9,C   8,C   4)   -177.8273         0.011092   
     98. D(H  21,C   9,C   8,H  20)    -61.7311         0.011092   
     99. D(H  21,C   9,C   8,H  19)   -177.7181         0.011092   
    100. D(H  21,C   9,C   8,C   4)     59.7003         0.011092   
    101. D(N  10,C   9,C   8,H  20)    179.3002         0.011092   
    102. D(N  10,C   9,C   8,H  19)     63.3133         0.011092   
    103. D(H  22,C   9,C   8,H  20)     60.7414         0.011092   
    104. D(N  10,C   9,C   8,C   4)    -59.2684         0.011092   
    105. D(H  13,N  10,C   9,H  22)     62.8926         0.013917   
    106. D(H  13,N  10,C   9,H  21)    179.4977         0.013917   
    107. D(H  13,N  10,C   9,C   8)    -58.2228         0.013917   
    108. D(H  12,N  10,C   9,H  22)    -58.1646         0.013917   
    109. D(H  12,N  10,C   9,H  21)     58.4405         0.013917   
    110. D(H  12,N  10,C   9,C   8)   -179.2800         0.013917   
    111. D(H  11,N  10,C   9,H  22)   -177.5755         0.013917   
    112. D(H  11,N  10,C   9,H  21)    -60.9704         0.013917   
    113. D(H  11,N  10,C   9,C   8)     61.3090         0.013917   
    -----------------------------------------------------------------

Number of atoms                         .... 23
Number of degrees of freedom            .... 113

         *************************************************************
         *                GEOMETRY OPTIMIZATION CYCLE   1            *
         *************************************************************
---------------------------------
CARTESIAN COORDINATES (ANGSTROEM)
---------------------------------
  C     -1.224823   -1.587242    0.220921
  C     -0.017892    0.791629   -0.642482
  C     -1.950120   -0.403966    0.185336
  C      0.121085   -1.577659   -0.164105
  C      0.736243   -0.388929   -0.594533
  C     -1.345335    0.773733   -0.239305
  O     -3.261213   -0.341801    0.559007
  O     -2.048891    1.941679   -0.258944
  C      2.199890   -0.366462   -0.959628
  C      3.105051   -0.278056    0.271559
  N      2.816475    0.949776    1.061500
  H      1.843695    0.946388    1.405002
  H      3.427806    1.024026    1.884278
  H      2.935367    1.805323    0.503860
  H     -1.684210   -2.518465    0.541070
  H      0.403518    1.727905   -0.999767
  H      0.676081   -2.514793   -0.137679
  H     -3.584019   -1.243249    0.736823
  H     -2.961362    1.693307   -0.000448
  H      2.402267    0.475666   -1.633564
  H      2.443113   -1.272673   -1.527915
  H      2.960421   -1.124636    0.950005
  H      4.158241   -0.224542   -0.019249

----------------------------
CARTESIAN COORDINATES (A.U.)
----------------------------
  NO LB      ZA    FRAG     MASS         X           Y           Z
   0 C     6.0000    0    12.011   -2.314580   -2.999453    0.417480
   1 C     6.0000    0    12.011   -0.033811    1.495962   -1.214115
   2 C     6.0000    0    12.011   -3.685193   -0.763385    0.350234
   3 C     6.0000    0    12.011    0.228817   -2.981343   -0.310114
   4 C     6.0000    0    12.011    1.391298   -0.734969   -1.123505
   5 C     6.0000    0    12.011   -2.542315    1.462143   -0.452221
   6 O     8.0000    0    15.999   -6.162799   -0.645910    1.056370
   7 O     8.0000    0    15.999   -3.871843    3.669242   -0.489333
   8 C     6.0000    0    12.011    4.157190   -0.692513   -1.813434
   9 C     6.0000    0    12.011    5.867696   -0.525450    0.513172
  10 N     7.0000    0    14.007    5.322366    1.794817    2.005944
  11 H     1.0000    0     1.008    3.484079    1.788414    2.655069
  12 H     1.0000    0     1.008    6.477615    1.935129    3.560769
  13 H     1.0000    0     1.008    5.547040    3.411566    0.952157
  14 H     1.0000    0     1.008   -3.182696   -4.759209    1.022474
  15 H     1.0000    0     1.008    0.762539    3.265267   -1.889286
  16 H     1.0000    0     1.008    1.277608   -4.752270   -0.260176
  17 H     1.0000    0     1.008   -6.772814   -2.349400    1.392394
  18 H     1.0000    0     1.008   -5.596163    3.199886   -0.000847
  19 H     1.0000    0     1.008    4.539627    0.898878   -3.086989
  20 H     1.0000    0     1.008    4.616814   -2.405003   -2.887341
  21 H     1.0000    0     1.008    5.594385   -2.125254    1.795249
  22 H     1.0000    0     1.008    7.857937   -0.424323   -0.036375

--------------------------------
INTERNAL COORDINATES (ANGSTROEM)
--------------------------------
 C      0   0   0     0.000000000000     0.00000000     0.00000000
 C      1   0   0     2.803778595719     0.00000000     0.00000000
 C      1   2   0     1.388331416705    59.59269746     0.00000000
 C      1   2   3     1.399930426496    59.71135100   180.75295956
 C      2   1   3     1.401690371013    60.42683223   179.05036051
 C      2   1   3     1.387435360078    59.18404585     0.22413006
 O      3   1   2     1.364719516280   122.25581952   179.87422441
 O      6   2   1     1.363625533045   118.58115365   179.35881916
 C      5   2   1     1.508662210610   120.07571709   182.12785618
 C      9   5   2     1.530670926661   112.32835392    97.65536973
 N     10   9   5     1.488238660794   111.09544455   300.73161141
 H     11  10   9     1.031652088132   110.90765575    61.30903645
 H     11  10   9     1.027717028829   111.66669474   180.71998234
 H     11  10   9     1.028133428341   112.09968410   301.77716280
 H      1   2   3     1.086603917579   178.99207118   136.71758444
 H      2   1   3     1.087130032471   177.17724352   324.12847282
 H      4   1   2     1.089467313621   118.50282347   181.15612753
 H      7   3   1     0.973874088471   109.04257295   353.69572103
 H      8   6   2     0.980363278709   105.03598478   176.27270634
 H      9   5   2     1.097417764850   109.81300857   335.01756001
 H      9   5   2     1.096962131807   109.15803676   219.26426810
 H     10   9   5     1.094488240328   112.07227054    59.70025548
 H     10   9   5     1.093911430217   110.99782088   182.17273376

---------------------------
INTERNAL COORDINATES (A.U.)
---------------------------
 C      0   0   0     0.000000000000     0.00000000     0.00000000
 C      1   0   0     5.298373686059     0.00000000     0.00000000
 C      1   2   0     2.623566160691    59.59269746     0.00000000
 C      1   2   3     2.645485112621    59.71135100   180.75295956
 C      2   1   3     2.648810925769    60.42683223   179.05036051
 C      2   1   3     2.621872859065    59.18404585     0.22413006
 O      3   1   2     2.578946135386   122.25581952   179.87422441
 O      6   2   1     2.576878806678   118.58115365   179.35881916
 C      5   2   1     2.850958406649   120.07571709   182.12785618
 C      9   5   2     2.892548852545   112.32835392    97.65536973
 N     10   9   5     2.812363490814   111.09544455   300.73161141
 H     11  10   9     1.949539912058   110.90765575    61.30903645
 H     11  10   9     1.942103727654   111.66669474   180.71998234
 H     11  10   9     1.942890608695   112.09968410   301.77716280
 H      1   2   3     2.053383820271   178.99207118   136.71758444
 H      2   1   3     2.054378033332   177.17724352   324.12847282
 H      4   1   2     2.058794854602   118.50282347   181.15612753
 H      7   3   1     1.840355316133   109.04257295   353.69572103
 H      8   6   2     1.852618108513   105.03598478   176.27270634
 H      9   5   2     2.073819030067   109.81300857   335.01756001
 H      9   5   2     2.072958008398   109.15803676   219.26426810
 H     10   9   5     2.068283031017   112.07227054    59.70025548
 H     10   9   5     2.067193017877   110.99782088   182.17273376

---------------------
BASIS SET INFORMATION
---------------------
There are 4 groups of distinct atoms

 Group   1 Type C   : 11s6p2d1f contracted to 5s3p2d1f pattern {62111/411/11/1}
 Group   2 Type O   : 11s6p2d1f contracted to 5s3p2d1f pattern {62111/411/11/1}
 Group   3 Type N   : 11s6p2d1f contracted to 5s3p2d1f pattern {62111/411/11/1}
 Group   4 Type H   : 5s1p contracted to 3s1p pattern {311/1}

Atom   0C    basis set group =>   1
Atom   1C    basis set group =>   1
Atom   2C    basis set group =>   1
Atom   3C    basis set group =>   1
Atom   4C    basis set group =>   1
Atom   5C    basis set group =>   1
Atom   6O    basis set group =>   2
Atom   7O    basis set group =>   2
Atom   8C    basis set group =>   1
Atom   9C    basis set group =>   1
Atom  10N    basis set group =>   3
Atom  11H    basis set group =>   4
Atom  12H    basis set group =>   4
Atom  13H    basis set group =>   4
Atom  14H    basis set group =>   4
Atom  15H    basis set group =>   4
Atom  16H    basis set group =>   4
Atom  17H    basis set group =>   4
Atom  18H    basis set group =>   4
Atom  19H    basis set group =>   4
Atom  20H    basis set group =>   4
Atom  21H    basis set group =>   4
Atom  22H    basis set group =>   4
---------------------------------
AUXILIARY/J BASIS SET INFORMATION
---------------------------------
There are 4 groups of distinct atoms

 Group   1 Type C   : 12s5p4d2f1g contracted to 6s4p3d1f1g pattern {711111/2111/211/2/1}
 Group   2 Type O   : 12s5p4d2f1g contracted to 6s4p3d1f1g pattern {711111/2111/211/2/1}
 Group   3 Type N   : 12s5p4d2f1g contracted to 6s4p3d1f1g pattern {711111/2111/211/2/1}
 Group   4 Type H   : 5s2p1d contracted to 3s1p1d pattern {311/2/1}

Atom   0C    basis set group =>   1
Atom   1C    basis set group =>   1
Atom   2C    basis set group =>   1
Atom   3C    basis set group =>   1
Atom   4C    basis set group =>   1
Atom   5C    basis set group =>   1
Atom   6O    basis set group =>   2
Atom   7O    basis set group =>   2
Atom   8C    basis set group =>   1
Atom   9C    basis set group =>   1
Atom  10N    basis set group =>   3
Atom  11H    basis set group =>   4
Atom  12H    basis set group =>   4
Atom  13H    basis set group =>   4
Atom  14H    basis set group =>   4
Atom  15H    basis set group =>   4
Atom  16H    basis set group =>   4
Atom  17H    basis set group =>   4
Atom  18H    basis set group =>   4
Atom  19H    basis set group =>   4
Atom  20H    basis set group =>   4
Atom  21H    basis set group =>   4
Atom  22H    basis set group =>   4
No protocol specified


           ************************************************************
           *        Program running with 16 parallel MPI-processes    *
           *              working on a common directory               *
           ************************************************************
------------------------------------------------------------------------------
                           ORCA GTO INTEGRAL CALCULATION
                           -- RI-GTO INTEGRALS CHOSEN --
------------------------------------------------------------------------------
------------------------------------------------------------------------------
                   ___                                                        
                  /   \      - P O W E R E D   B Y -                         
                 /     \                                                     
                 |  |  |   _    _      __       _____    __    __             
                 |  |  |  | |  | |    /  \     |  _  \  |  |  /  |          
                  \  \/   | |  | |   /    \    | | | |  |  | /  /          
                 / \  \   | |__| |  /  /\  \   | |_| |  |  |/  /          
                |  |  |   |  __  | /  /__\  \  |    /   |      \           
                |  |  |   | |  | | |   __   |  |    \   |  |\   \          
                \     /   | |  | | |  |  |  |  | |\  \  |  | \   \       
                 \___/    |_|  |_| |__|  |__|  |_| \__\ |__|  \__/        
                                                                              
                      - O R C A' S   B I G   F R I E N D -                    
                                      &                                       
                       - I N T E G R A L  F E E D E R -                       
                                                                              
 v1 FN, 2020, v2 2021                                                         
------------------------------------------------------------------------------


Reading SHARK input file 1_M0001.SHARKINP.tmp ... ok
----------------------
SHARK INTEGRAL PACKAGE
----------------------

Number of atoms                             ...     23
Number of basis functions                   ...    413
Number of shells                            ...    169
Maximum angular momentum                    ...      3
Integral batch strategy                     ... SHARK/LIBINT Hybrid
RI-J (if used) integral strategy            ... SPLIT-RIJ (Revised 2003 algorithm where possible)
Printlevel                                  ...      1
Contraction scheme used                     ... SEGMENTED contraction
Coulomb Range Separation                    ... NOT USED
Exchange Range Separation                   ... NOT USED
Finite Nucleus Model                        ... NOT USED
Auxiliary Coulomb fitting basis             ... AVAILABLE
   # of basis functions in Aux-J            ...    671
   # of shells in Aux-J                     ...    225
   Maximum angular momentum in Aux-J        ...      4
Auxiliary J/K fitting basis                 ... NOT available
Auxiliary Correlation fitting basis         ... NOT available
Auxiliary 'external' fitting basis          ... NOT available
Integral threshold                          ...     2.500000e-11
Primitive cut-off                           ...     2.500000e-12
Primitive pair pre-selection threshold      ...     2.500000e-12

Calculating pre-screening integrals         ... done (  0.1 sec) Dimension = 169
Organizing shell pair data                  ... done (  0.3 sec)
Shell pair information
Total number of shell pairs                 ...     14365
Shell pairs after pre-screening             ...     12240
Total number of primitive shell pairs       ...     43056
Primitive shell pairs kept                  ...     26555
          la=0 lb=0:   3451 shell pairs
          la=1 lb=0:   3525 shell pairs
          la=1 lb=1:    927 shell pairs
          la=2 lb=0:   1706 shell pairs
          la=2 lb=1:    879 shell pairs
          la=2 lb=2:    222 shell pairs
          la=3 lb=0:    826 shell pairs
          la=3 lb=1:    435 shell pairs
          la=3 lb=2:    211 shell pairs
          la=3 lb=3:     58 shell pairs

Calculating one electron integrals          ... done (  0.0 sec)
Calculating RI/J V-Matrix + Cholesky decomp.... done (  0.0 sec)
Calculating Nuclear repulsion               ... done (  0.0 sec) ENN=    619.189268196536 Eh

SHARK setup successfully completed in   0.7 seconds

Maximum memory used throughout the entire GTOINT-calculation: 25.0 MB
No protocol specified


           ************************************************************
           *        Program running with 16 parallel MPI-processes    *
           *              working on a common directory               *
           ************************************************************
-------------------------------------------------------------------------------
                                 ORCA SCF
-------------------------------------------------------------------------------

------------
SCF SETTINGS
------------
Hamiltonian:
 Density Functional     Method          .... DFT(GTOs)
 Exchange Functional    Exchange        .... PBE
   PBE kappa parameter   XKappa         ....  0.804000
   PBE mue parameter    XMuePBE         ....  0.219520
 Correlation Functional Correlation     .... PBE
   PBE beta parameter  CBetaPBE         ....  0.066725
 LDA part of GGA corr.  LDAOpt          .... PW91-LDA
 Gradients option       PostSCFGGA      .... off
   Density functional embedding theory  .... OFF
   NL short-range parameter             ....  6.400000
 RI-approximation to the Coulomb term is turned on
   Number of AuxJ basis functions       .... 671


General Settings:
 Integral files         IntName         .... 1_M0001
 Hartree-Fock type      HFTyp           .... RHF
 Total Charge           Charge          ....    1
 Multiplicity           Mult            ....    1
 Number of Electrons    NEL             ....   82
 Basis Dimension        Dim             ....  413
 Nuclear Repulsion      ENuc            ....    619.1892681965 Eh

Convergence Acceleration:
 DIIS                   CNVDIIS         .... on
   Start iteration      DIISMaxIt       ....    12
   Startup error        DIISStart       ....  0.200000
   # of expansion vecs  DIISMaxEq       ....     5
   Bias factor          DIISBfac        ....   1.050
   Max. coefficient     DIISMaxC        ....  10.000
 Trust-Rad. Augm. Hess. CNVTRAH         .... auto
   Auto Start mean grad. ratio tolernc. ....  1.125000
   Auto Start start iteration           ....    20
   Auto Start num. interpolation iter.  ....    10
   Max. Number of Micro iterations      ....    16
   Max. Number of Macro iterations      .... Maxiter - #DIIS iter
   Number of Davidson start vectors     ....     2
   Converg. threshold I  (grad. norm)   ....   1.000e-05
   Converg. threshold II (energy diff.) ....   1.000e-08
   Grad. Scal. Fac. for Micro threshold ....   0.100
   Minimum threshold for Micro iter.    ....   0.010
   NR start threshold (gradient norm)   ....   0.001
   Initial trust radius                 ....   0.400
   Minimum AH scaling param. (alpha)    ....   1.000
   Maximum AH scaling param. (alpha)    .... 1000.000
   Orbital update algorithm             .... Taylor
   White noise on init. David. guess    .... on
   Maximum white noise                  ....   0.010
   Quad. conv. algorithm                .... NR
 SOSCF                  CNVSOSCF        .... on
   Start iteration      SOSCFMaxIt      ....   150
   Startup grad/error   SOSCFStart      ....  0.003300
 Level Shifting         CNVShift        .... on
   Level shift para.    LevelShift      ....    0.2500
   Turn off err/grad.   ShiftErr        ....    0.0010
 Zerner damping         CNVZerner       .... off
 Static damping         CNVDamp         .... on
   Fraction old density DampFac         ....    0.7000
   Max. Damping (<1)    DampMax         ....    0.9800
   Min. Damping (>=0)   DampMin         ....    0.0000
   Turn off err/grad.   DampErr         ....    0.1000
 Fernandez-Rico         CNVRico         .... off

SCF Procedure:
 Maximum # iterations   MaxIter         ....   125
 SCF integral mode      SCFMode         .... Direct
   Integral package                     .... SHARK and LIBINT hybrid scheme
 Reset frequency        DirectResetFreq ....    20
 Integral Threshold     Thresh          ....  2.500e-11 Eh
 Primitive CutOff       TCut            ....  2.500e-12 Eh

Convergence Tolerance:
 Convergence Check Mode ConvCheckMode   .... Total+1el-Energy
 Convergence forced     ConvForced      .... 0
 Energy Change          TolE            ....  1.000e-08 Eh
 1-El. energy change                    ....  1.000e-05 Eh
 Orbital Gradient       TolG            ....  1.000e-05
 Orbital Rotation angle TolX            ....  1.000e-05
 DIIS Error             TolErr          ....  5.000e-07


Diagonalization of the overlap matrix:
Smallest eigenvalue                        ... 8.890e-06
Time for diagonalization                   ...    0.039 sec
Threshold for overlap eigenvalues          ... 1.000e-08
Number of eigenvalues below threshold      ... 0
Time for construction of square roots      ...    0.026 sec
Total time needed                          ...    0.067 sec

Time for model grid setup =    0.108 sec

------------------------------
INITIAL GUESS: MODEL POTENTIAL
------------------------------
Loading Hartree-Fock densities                     ... done
Calculating cut-offs                               ... done
Initializing the effective Hamiltonian             ... done
Setting up the integral package (SHARK)            ... done
Starting the Coulomb interaction                   ... done (   0.1 sec)
Reading the grid                                   ... done
Mapping shells                                     ... done
Starting the XC term evaluation                    ... done (   0.1 sec)
  promolecular density results
     # of electrons  =     83.001970761
     EX              =    -67.387334400
     EC              =     -2.776258751
     EX+EC           =    -70.163593150
Transforming the Hamiltonian                       ... done (   0.0 sec)
Diagonalizing the Hamiltonian                      ... done (   0.0 sec)
Back transforming the eigenvectors                 ... done (   0.0 sec)
Now organizing SCF variables                       ... done
                      ------------------
                      INITIAL GUESS DONE (   0.4 sec)
                      ------------------
-------------------
DFT GRID GENERATION
-------------------

General Integration Accuracy     IntAcc      ... 4.388
Radial Grid Type                 RadialGrid  ... OptM3 with GC (2021)
Angular Grid (max. ang.)         AngularGrid ... 4 (Lebedev-302)
Angular grid pruning method      GridPruning ... 4 (adaptive)
Weight generation scheme         WeightScheme... Becke
Basis function cutoff            BFCut       ... 1.0000e-11
Integration weight cutoff        WCut        ... 1.0000e-14
Angular grids for H and He will be reduced by one unit
Partially contracted basis set               ... off
Rotationally invariant grid construction     ... off

Total number of grid points                  ...   104400
Total number of batches                      ...     1642
Average number of points per batch           ...       63
Average number of grid points per atom       ...     4539
Time for grid setup =    0.701 sec


--------------------
CPCM SOLVATION MODEL
--------------------
CPCM parameters:
  Epsilon                                         ...      80.4000
  Refrac                                          ...       1.3300
  Rsolv                                           ...       1.3000
  Surface type                                    ... GAUSSIAN VDW
  Epsilon function type                           ...         CPCM
Radii:
 Radius for C  used is    3.8550 Bohr (=   2.0400 Ang.)
 Radius for O  used is    3.4469 Bohr (=   1.8240 Ang.)
 Radius for N  used is    3.5149 Bohr (=   1.8600 Ang.)
 Radius for H  used is    2.4944 Bohr (=   1.3200 Ang.)
Calculating surface                               ...        done! (  0.0s)
GEPOL surface points                              ...         1298
GEPOL Volume                                      ...    1286.9835
GEPOL Surface-area                                ...     714.6968
Calculating surface distance matrix               ...        done! (  0.0s)
Performing Cholesky decomposition & store         ...        done! (  0.1s)
Overall time for CPCM initialization              ...                 0.2s
--------------
SCF ITERATIONS
--------------
ITER       Energy         Delta-E        Max-DP      RMS-DP      [F,P]     Damp
               ***  Starting incremental Fock matrix formation  ***
  0   -516.5002979009   0.000000000000 0.19184839  0.00156821  0.2065631 0.7000
  1   -516.6085710530  -0.108273152075 0.20367113  0.00159663  0.0796710 0.7000
                               ***Turning on DIIS***
  2   -516.6473720683  -0.038801015286 0.29153254  0.00263980  0.0233560 0.0000
  3   -516.7064448374  -0.059072769148 0.16807939  0.00120593  0.0413746 0.0000
  4   -516.7224449658  -0.016000128419 0.05311165  0.00044246  0.0122670 0.0000
  5   -516.7234379839  -0.000993018073 0.02601775  0.00021372  0.0061506 0.0000
                      *** Initiating the SOSCF procedure ***
                           *** Shutting down DIIS ***
                      *** Re-Reading the Fockian *** 
                      *** Removing any level shift *** 
ITER      Energy       Delta-E        Grad      Rot      Max-DP    RMS-DP
  6   -516.72354764  -0.0001096588  0.000438  0.000438  0.007969  0.000093
               *** Restarting incremental Fock matrix formation ***
  7   -516.72354514   0.0000025000  0.000786  0.005328  0.008395  0.000068
  8   -516.72349896   0.0000461861  0.001968  0.003796  0.005925  0.000048
  9   -516.72355397  -0.0000550153  0.000057  0.000124  0.000528  0.000004
 10   -516.72355375   0.0000002215  0.000097  0.000085  0.000499  0.000004
 11   -516.72355408  -0.0000003312  0.000009  0.000054  0.000154  0.000002
 12   -516.72355408   0.0000000030  0.000021  0.000040  0.000050  0.000001
                  ***Gradient check signals convergence***
              ***Rediagonalizing the Fockian in SOSCF/NRSCF***

               *****************************************************
               *                     SUCCESS                       *
               *           SCF CONVERGED AFTER  13 CYCLES          *
               *****************************************************


----------------
TOTAL SCF ENERGY
----------------

Total Energy       :         -516.72355409 Eh          -14060.76274 eV

Components:
Nuclear Repulsion  :          619.18926820 Eh           16848.99657 eV
Electronic Energy  :        -1135.91282229 Eh          -30909.75932 eV
One Electron Energy:        -1917.67155030 Eh          -52182.49579 eV
Two Electron Energy:          781.75872802 Eh           21272.73647 eV
CPCM Dielectric    :           -0.11688403 Eh              -3.18058 eV

Virial components:
Potential Energy   :        -1031.16140194 Eh          -28059.32826 eV
Kinetic Energy     :          514.43784785 Eh           13998.56551 eV
Virial Ratio       :            2.00444311


DFT components:
N(Alpha)           :       40.999910589282 electrons
N(Beta)            :       40.999910589282 electrons
N(Total)           :       81.999821178564 electrons
E(X)               :      -68.441368166803 Eh       
E(C)               :       -2.747437717382 Eh       
E(XC)              :      -71.188805884184 Eh       
DFET-embed. en.    :        0.000000000000 Eh       
CPCM Solvation Model Properties:
Surface-charge          :           -1.01971298
Charge-correction       :            0.00265566 Eh               0.07226 eV
Free-energy (cav+disp)  :  This term is not implemented in the current solvation scheme

---------------
SCF CONVERGENCE
---------------

  Last Energy change         ...   -9.9624e-09  Tolerance :   1.0000e-08
  Last MAX-Density change    ...    6.6174e-05  Tolerance :   1.0000e-07
  Last RMS-Density change    ...    1.0500e-06  Tolerance :   5.0000e-09
  Last Orbital Gradient      ...    1.4492e-06  Tolerance :   1.0000e-05
  Last Orbital Rotation      ...    6.6151e-06  Tolerance :   1.0000e-05

             **** THE GBW FILE WAS UPDATED (1_M0001.gbw) ****
             **** DENSITY 1_M0001.scfp WAS UPDATED ****
             **** ENERGY FILE WAS UPDATED (1_M0001.en.tmp) ****
             **** THE GBW FILE WAS UPDATED (1_M0001.gbw) ****
             **** DENSITY 1_M0001.scfp WAS UPDATED ****
----------------
ORBITAL ENERGIES
----------------

  NO   OCC          E(Eh)            E(eV) 
   0   2.0000     -18.790794      -511.3235 
   1   2.0000     -18.785235      -511.1722 
   2   2.0000     -14.099794      -383.6749 
   3   2.0000      -9.946052      -270.6458 
   4   2.0000      -9.945487      -270.6305 
   5   2.0000      -9.944742      -270.6102 
   6   2.0000      -9.900051      -269.3941 
   7   2.0000      -9.899096      -269.3681 
   8   2.0000      -9.890057      -269.1221 
   9   2.0000      -9.887790      -269.0604 
  10   2.0000      -9.886232      -269.0180 
  11   2.0000      -0.994677       -27.0665 
  12   2.0000      -0.968236       -26.3471 
  13   2.0000      -0.921154       -25.0659 
  14   2.0000      -0.785626       -21.3780 
  15   2.0000      -0.724593       -19.7172 
  16   2.0000      -0.680786       -18.5251 
  17   2.0000      -0.664581       -18.0842 
  18   2.0000      -0.603515       -16.4225 
  19   2.0000      -0.570953       -15.5364 
  20   2.0000      -0.550192       -14.9715 
  21   2.0000      -0.528978       -14.3942 
  22   2.0000      -0.522941       -14.2299 
  23   2.0000      -0.504154       -13.7187 
  24   2.0000      -0.478635       -13.0243 
  25   2.0000      -0.456593       -12.4245 
  26   2.0000      -0.427141       -11.6231 
  27   2.0000      -0.420157       -11.4331 
  28   2.0000      -0.397130       -10.8065 
  29   2.0000      -0.392836       -10.6896 
  30   2.0000      -0.384630       -10.4663 
  31   2.0000      -0.372499       -10.1362 
  32   2.0000      -0.358027        -9.7424 
  33   2.0000      -0.347948        -9.4682 
  34   2.0000      -0.331911        -9.0317 
  35   2.0000      -0.324910        -8.8412 
  36   2.0000      -0.311518        -8.4768 
  37   2.0000      -0.305358        -8.3092 
  38   2.0000      -0.292478        -7.9587 
  39   2.0000      -0.222979        -6.0676 
  40   2.0000      -0.192216        -5.2305 
  41   0.0000      -0.044503        -1.2110 
  42   0.0000      -0.031765        -0.8644 
  43   0.0000      -0.005215        -0.1419 
  44   0.0000       0.007952         0.2164 
  45   0.0000       0.033573         0.9136 
  46   0.0000       0.038184         1.0390 
  47   0.0000       0.045985         1.2513 
  48   0.0000       0.049076         1.3354 
  49   0.0000       0.063924         1.7395 
  50   0.0000       0.072983         1.9860 
  51   0.0000       0.084870         2.3094 
  52   0.0000       0.087270         2.3747 
  53   0.0000       0.103531         2.8172 
  54   0.0000       0.107796         2.9333 
  55   0.0000       0.110058         2.9948 
  56   0.0000       0.118305         3.2192 
  57   0.0000       0.124804         3.3961 
  58   0.0000       0.141046         3.8380 
  59   0.0000       0.152493         4.1495 
  60   0.0000       0.160488         4.3671 
  61   0.0000       0.174354         4.7444 
  62   0.0000       0.183303         4.9879 
  63   0.0000       0.194815         5.3012 
  64   0.0000       0.201462         5.4821 
  65   0.0000       0.208530         5.6744 
  66   0.0000       0.215220         5.8564 
  67   0.0000       0.225371         6.1327 
  68   0.0000       0.230503         6.2723 
  69   0.0000       0.237075         6.4511 
  70   0.0000       0.244084         6.6419 
  71   0.0000       0.258656         7.0384 
  72   0.0000       0.259880         7.0717 
  73   0.0000       0.271781         7.3955 
  74   0.0000       0.282811         7.6957 
  75   0.0000       0.286054         7.7839 
  76   0.0000       0.296084         8.0568 
  77   0.0000       0.305697         8.3185 
  78   0.0000       0.312418         8.5013 
  79   0.0000       0.315424         8.5831 
  80   0.0000       0.322557         8.7772 
  81   0.0000       0.338364         9.2073 
  82   0.0000       0.342019         9.3068 
  83   0.0000       0.358119         9.7449 
  84   0.0000       0.369644        10.0585 
  85   0.0000       0.374358        10.1868 
  86   0.0000       0.384531        10.4636 
  87   0.0000       0.386832        10.5262 
  88   0.0000       0.390390        10.6230 
  89   0.0000       0.396433        10.7875 
  90   0.0000       0.399432        10.8691 
  91   0.0000       0.404818        11.0157 
  92   0.0000       0.415703        11.3118 
  93   0.0000       0.420552        11.4438 
  94   0.0000       0.426156        11.5963 
  95   0.0000       0.435884        11.8610 
  96   0.0000       0.438418        11.9300 
  97   0.0000       0.444931        12.1072 
  98   0.0000       0.450980        12.2718 
  99   0.0000       0.469630        12.7793 
 100   0.0000       0.482402        13.1268 
 101   0.0000       0.487474        13.2648 
 102   0.0000       0.494980        13.4691 
 103   0.0000       0.503863        13.7108 
 104   0.0000       0.525531        14.3004 
 105   0.0000       0.534595        14.5471 
 106   0.0000       0.551662        15.0115 
 107   0.0000       0.556616        15.1463 
 108   0.0000       0.571374        15.5479 
 109   0.0000       0.577020        15.7015 
 110   0.0000       0.582089        15.8394 
 111   0.0000       0.593616        16.1531 
 112   0.0000       0.600134        16.3305 
 113   0.0000       0.614244        16.7144 
 114   0.0000       0.637969        17.3600 
 115   0.0000       0.645869        17.5750 
 116   0.0000       0.666769        18.1437 
 117   0.0000       0.677478        18.4351 
 118   0.0000       0.691164        18.8075 
 119   0.0000       0.701786        19.0966 
 120   0.0000       0.718643        19.5553 
 121   0.0000       0.726801        19.7773 
 122   0.0000       0.734788        19.9946 
 123   0.0000       0.756785        20.5932 
 124   0.0000       0.758458        20.6387 
 125   0.0000       0.772683        21.0258 
 126   0.0000       0.791645        21.5418 
 127   0.0000       0.797119        21.6907 
 128   0.0000       0.802954        21.8495 
 129   0.0000       0.819819        22.3084 
 130   0.0000       0.826505        22.4903 
 131   0.0000       0.838830        22.8257 
 132   0.0000       0.864317        23.5193 
 133   0.0000       0.867414        23.6035 
 134   0.0000       0.888190        24.1689 
 135   0.0000       0.915479        24.9115 
 136   0.0000       0.942479        25.6462 
 137   0.0000       0.970594        26.4112 
 138   0.0000       0.983596        26.7650 
 139   0.0000       1.004412        27.3314 
 140   0.0000       1.011693        27.5296 
 141   0.0000       1.030937        28.0532 
 142   0.0000       1.042671        28.3725 
 143   0.0000       1.048442        28.5296 
 144   0.0000       1.062987        28.9254 
 145   0.0000       1.080856        29.4116 
 146   0.0000       1.104177        30.0462 
 147   0.0000       1.114668        30.3317 
 148   0.0000       1.130692        30.7677 
 149   0.0000       1.144777        31.1510 
 150   0.0000       1.155632        31.4463 
 151   0.0000       1.171279        31.8721 
 152   0.0000       1.181484        32.1498 
 153   0.0000       1.190979        32.4082 
 154   0.0000       1.220641        33.2153 
 155   0.0000       1.231475        33.5101 
 156   0.0000       1.235284        33.6138 
 157   0.0000       1.259241        34.2657 
 158   0.0000       1.270394        34.5692 
 159   0.0000       1.281297        34.8659 
 160   0.0000       1.302215        35.4351 
 161   0.0000       1.307712        35.5847 
 162   0.0000       1.325065        36.0569 
 163   0.0000       1.328926        36.1619 
 164   0.0000       1.341793        36.5120 
 165   0.0000       1.369285        37.2601 
 166   0.0000       1.389214        37.8024 
 167   0.0000       1.403676        38.1960 
 168   0.0000       1.437927        39.1280 
 169   0.0000       1.451902        39.5083 
 170   0.0000       1.462882        39.8070 
 171   0.0000       1.468961        39.9725 
 172   0.0000       1.475974        40.1633 
 173   0.0000       1.501748        40.8646 
 174   0.0000       1.521741        41.4087 
 175   0.0000       1.533059        41.7166 
 176   0.0000       1.544956        42.0404 
 177   0.0000       1.552318        42.2407 
 178   0.0000       1.570422        42.7334 
 179   0.0000       1.593331        43.3567 
 180   0.0000       1.601092        43.5679 
 181   0.0000       1.616954        43.9995 
 182   0.0000       1.628249        44.3069 
 183   0.0000       1.632410        44.4201 
 184   0.0000       1.643160        44.7127 
 185   0.0000       1.657313        45.0978 
 186   0.0000       1.665373        45.3171 
 187   0.0000       1.681303        45.7506 
 188   0.0000       1.690409        45.9984 
 189   0.0000       1.700215        46.2652 
 190   0.0000       1.722381        46.8684 
 191   0.0000       1.729724        47.0682 
 192   0.0000       1.753652        47.7193 
 193   0.0000       1.779050        48.4104 
 194   0.0000       1.785510        48.5862 
 195   0.0000       1.793056        48.7915 
 196   0.0000       1.812132        49.3106 
 197   0.0000       1.818276        49.4778 
 198   0.0000       1.831026        49.8248 
 199   0.0000       1.840719        50.0885 
 200   0.0000       1.844866        50.2014 
 201   0.0000       1.874847        51.0172 
 202   0.0000       1.897654        51.6378 
 203   0.0000       1.917474        52.1771 
 204   0.0000       1.925365        52.3919 
 205   0.0000       1.939742        52.7831 
 206   0.0000       1.958187        53.2850 
 207   0.0000       1.966863        53.5211 
 208   0.0000       1.993010        54.2326 
 209   0.0000       2.024965        55.1021 
 210   0.0000       2.032222        55.2996 
 211   0.0000       2.046167        55.6790 
 212   0.0000       2.068743        56.2934 
 213   0.0000       2.083491        56.6947 
 214   0.0000       2.094377        56.9909 
 215   0.0000       2.096714        57.0545 
 216   0.0000       2.111959        57.4693 
 217   0.0000       2.134535        58.0837 
 218   0.0000       2.157472        58.7078 
 219   0.0000       2.165185        58.9177 
 220   0.0000       2.174138        59.1613 
 221   0.0000       2.214663        60.2640 
 222   0.0000       2.229313        60.6627 
 223   0.0000       2.247255        61.1509 
 224   0.0000       2.259876        61.4943 
 225   0.0000       2.294466        62.4356 
 226   0.0000       2.304396        62.7058 
 227   0.0000       2.311468        62.8982 
 228   0.0000       2.344084        63.7858 
 229   0.0000       2.349148        63.9236 
 230   0.0000       2.358094        64.1670 
 231   0.0000       2.373570        64.5881 
 232   0.0000       2.392825        65.1121 
 233   0.0000       2.408969        65.5514 
 234   0.0000       2.412855        65.6571 
 235   0.0000       2.440088        66.3982 
 236   0.0000       2.468665        67.1758 
 237   0.0000       2.471590        67.2554 
 238   0.0000       2.489547        67.7440 
 239   0.0000       2.498114        67.9771 
 240   0.0000       2.508959        68.2722 
 241   0.0000       2.527806        68.7851 
 242   0.0000       2.528287        68.7982 
 243   0.0000       2.556086        69.5546 
 244   0.0000       2.557560        69.5947 
 245   0.0000       2.572534        70.0022 
 246   0.0000       2.599925        70.7476 
 247   0.0000       2.613220        71.1093 
 248   0.0000       2.615921        71.1828 
 249   0.0000       2.633985        71.6744 
 250   0.0000       2.650331        72.1192 
 251   0.0000       2.662042        72.4378 
 252   0.0000       2.676936        72.8431 
 253   0.0000       2.685239        73.0691 
 254   0.0000       2.697188        73.3942 
 255   0.0000       2.714364        73.8616 
 256   0.0000       2.724165        74.1283 
 257   0.0000       2.735587        74.4391 
 258   0.0000       2.752624        74.9027 
 259   0.0000       2.771260        75.4098 
 260   0.0000       2.774195        75.4897 
 261   0.0000       2.800180        76.1968 
 262   0.0000       2.809785        76.4581 
 263   0.0000       2.825576        76.8878 
 264   0.0000       2.832475        77.0756 
 265   0.0000       2.840664        77.2984 
 266   0.0000       2.853576        77.6497 
 267   0.0000       2.868921        78.0673 
 268   0.0000       2.888795        78.6081 
 269   0.0000       2.928311        79.6834 
 270   0.0000       2.936644        79.9102 
 271   0.0000       2.948898        80.2436 
 272   0.0000       2.962720        80.6197 
 273   0.0000       2.968349        80.7729 
 274   0.0000       2.971422        80.8565 
 275   0.0000       2.989331        81.3438 
 276   0.0000       2.992803        81.4383 
 277   0.0000       3.020663        82.1964 
 278   0.0000       3.038872        82.6919 
 279   0.0000       3.068140        83.4883 
 280   0.0000       3.076322        83.7110 
 281   0.0000       3.087322        84.0103 
 282   0.0000       3.097440        84.2856 
 283   0.0000       3.104182        84.4691 
 284   0.0000       3.126943        85.0884 
 285   0.0000       3.134974        85.3070 
 286   0.0000       3.139077        85.4186 
 287   0.0000       3.157060        85.9080 
 288   0.0000       3.167722        86.1981 
 289   0.0000       3.177319        86.4592 
 290   0.0000       3.182315        86.5952 
 291   0.0000       3.193008        86.8862 
 292   0.0000       3.210382        87.3589 
 293   0.0000       3.225467        87.7694 
 294   0.0000       3.251218        88.4701 
 295   0.0000       3.266013        88.8727 
 296   0.0000       3.272786        89.0570 
 297   0.0000       3.285384        89.3998 
 298   0.0000       3.302252        89.8588 
 299   0.0000       3.321364        90.3789 
 300   0.0000       3.334225        90.7289 
 301   0.0000       3.339415        90.8701 
 302   0.0000       3.362692        91.5035 
 303   0.0000       3.375143        91.8423 
 304   0.0000       3.380623        91.9914 
 305   0.0000       3.399629        92.5086 
 306   0.0000       3.415500        92.9405 
 307   0.0000       3.426126        93.2296 
 308   0.0000       3.438083        93.5550 
 309   0.0000       3.446553        93.7855 
 310   0.0000       3.465167        94.2920 
 311   0.0000       3.502083        95.2965 
 312   0.0000       3.535888        96.2164 
 313   0.0000       3.573035        97.2272 
 314   0.0000       3.596185        97.8572 
 315   0.0000       3.600784        97.9823 
 316   0.0000       3.622441        98.5716 
 317   0.0000       3.633463        98.8715 
 318   0.0000       3.663304        99.6836 
 319   0.0000       3.708015       100.9002 
 320   0.0000       3.724995       101.3623 
 321   0.0000       3.747154       101.9652 
 322   0.0000       3.755947       102.2045 
 323   0.0000       3.772531       102.6558 
 324   0.0000       3.811039       103.7036 
 325   0.0000       3.829724       104.2121 
 326   0.0000       3.848636       104.7267 
 327   0.0000       3.875225       105.4502 
 328   0.0000       3.893169       105.9385 
 329   0.0000       3.914428       106.5170 
 330   0.0000       3.937070       107.1331 
 331   0.0000       3.980919       108.3263 
 332   0.0000       3.985640       108.4548 
 333   0.0000       4.004341       108.9637 
 334   0.0000       4.061218       110.5114 
 335   0.0000       4.074468       110.8719 
 336   0.0000       4.086523       111.2000 
 337   0.0000       4.102813       111.6432 
 338   0.0000       4.115170       111.9795 
 339   0.0000       4.134895       112.5162 
 340   0.0000       4.169520       113.4584 
 341   0.0000       4.192330       114.0791 
 342   0.0000       4.214338       114.6780 
 343   0.0000       4.225506       114.9819 
 344   0.0000       4.245062       115.5140 
 345   0.0000       4.269979       116.1920 
 346   0.0000       4.311727       117.3281 
 347   0.0000       4.344709       118.2255 
 348   0.0000       4.363888       118.7474 
 349   0.0000       4.375330       119.0588 
 350   0.0000       4.471262       121.6692 
 351   0.0000       4.488958       122.1508 
 352   0.0000       4.531645       123.3123 
 353   0.0000       4.571033       124.3841 
 354   0.0000       4.602164       125.2312 
 355   0.0000       4.630945       126.0144 
 356   0.0000       4.673076       127.1609 
 357   0.0000       4.684926       127.4833 
 358   0.0000       4.710225       128.1717 
 359   0.0000       4.752364       129.3184 
 360   0.0000       4.759787       129.5204 
 361   0.0000       4.777964       130.0150 
 362   0.0000       4.798954       130.5862 
 363   0.0000       4.828701       131.3956 
 364   0.0000       4.866834       132.4333 
 365   0.0000       4.888819       133.0315 
 366   0.0000       4.915713       133.7634 
 367   0.0000       4.976843       135.4268 
 368   0.0000       5.001977       136.1107 
 369   0.0000       5.020184       136.6061 
 370   0.0000       5.080886       138.2579 
 371   0.0000       5.110785       139.0715 
 372   0.0000       5.168916       140.6534 
 373   0.0000       5.180208       140.9606 
 374   0.0000       5.252940       142.9398 
 375   0.0000       5.278448       143.6339 
 376   0.0000       5.299982       144.2198 
 377   0.0000       5.327821       144.9774 
 378   0.0000       5.334659       145.1635 
 379   0.0000       5.381160       146.4288 
 380   0.0000       5.393631       146.7682 
 381   0.0000       5.473121       148.9312 
 382   0.0000       5.515867       150.0944 
 383   0.0000       5.554725       151.1517 
 384   0.0000       5.652280       153.8064 
 385   0.0000       5.753004       156.5472 
 386   0.0000       5.770435       157.0215 
 387   0.0000       5.884645       160.1293 
 388   0.0000       6.064579       165.0256 
 389   0.0000       6.157397       167.5513 
 390   0.0000       6.235801       169.6848 
 391   0.0000       6.291823       171.2092 
 392   0.0000       6.304766       171.5614 
 393   0.0000       6.433841       175.0737 
 394   0.0000       6.525672       177.5726 
 395   0.0000       6.625772       180.2964 
 396   0.0000       6.658688       181.1921 
 397   0.0000       6.694611       182.1696 
 398   0.0000       6.851791       186.4467 
 399   0.0000       6.868593       186.9039 
 400   0.0000       7.094022       193.0382 
 401   0.0000       7.221731       196.5133 
 402   0.0000      21.919726       596.4661 
 403   0.0000      22.109891       601.6407 
 404   0.0000      22.277690       606.2068 
 405   0.0000      22.434626       610.4772 
 406   0.0000      22.489361       611.9666 
 407   0.0000      22.623212       615.6089 
 408   0.0000      22.718408       618.1993 
 409   0.0000      23.150933       629.9689 
 410   0.0000      31.545160       858.3875 
 411   0.0000      43.443902      1182.1687 
 412   0.0000      43.670641      1188.3385 

                    ********************************
                    * MULLIKEN POPULATION ANALYSIS *
                    ********************************

-----------------------
MULLIKEN ATOMIC CHARGES
-----------------------
   0 C :   -0.215607
   1 C :   -0.340440
   2 C :    0.198540
   3 C :   -0.256725
   4 C :    0.131721
   5 C :    0.161305
   6 O :   -0.424733
   7 O :   -0.383707
   8 C :   -0.214537
   9 C :   -0.164929
  10 N :   -0.241640
  11 H :    0.327654
  12 H :    0.335454
  13 H :    0.329275
  14 H :    0.149523
  15 H :    0.122496
  16 H :    0.132484
  17 H :    0.364411
  18 H :    0.347924
  19 H :    0.152695
  20 H :    0.145538
  21 H :    0.173349
  22 H :    0.169948
Sum of atomic charges:    1.0000000

--------------------------------
MULLIKEN REDUCED ORBITAL CHARGES
--------------------------------
  0 C s       :     3.239981  s :     3.239981
      pz      :     1.012148  p :     2.888974
      px      :     0.929627
      py      :     0.947199
      dz2     :     0.007092  d :     0.079779
      dxz     :     0.017518
      dyz     :     0.012319
      dx2y2   :     0.016120
      dxy     :     0.026731
      f0      :     0.001102  f :     0.006873
      f+1     :     0.000995
      f-1     :     0.000466
      f+2     :     0.000780
      f-2     :     0.000861
      f+3     :     0.000774
      f-3     :     0.001895
  1 C s       :     3.366999  s :     3.366999
      pz      :     1.041267  p :     2.887488
      px      :     0.947864
      py      :     0.898357
      dz2     :     0.006082  d :     0.078989
      dxz     :     0.018384
      dyz     :     0.011229
      dx2y2   :     0.022428
      dxy     :     0.020865
      f0      :     0.001052  f :     0.006963
      f+1     :     0.001095
      f-1     :     0.000426
      f+2     :     0.000764
      f-2     :     0.000895
      f+3     :     0.000751
      f-3     :     0.001980
  2 C s       :     3.092128  s :     3.092128
      pz      :     0.959021  p :     2.530313
      px      :     0.723170
      py      :     0.848121
      dz2     :     0.018011  d :     0.164253
      dxz     :     0.035996
      dyz     :     0.023730
      dx2y2   :     0.033220
      dxy     :     0.053296
      f0      :     0.001599  f :     0.014767
      f+1     :     0.002048
      f-1     :     0.000933
      f+2     :     0.002237
      f-2     :     0.001540
      f+3     :     0.001795
      f-3     :     0.004615
  3 C s       :     3.259551  s :     3.259551
      pz      :     1.001773  p :     2.903256
      px      :     0.963365
      py      :     0.938117
      dz2     :     0.010401  d :     0.087033
      dxz     :     0.016631
      dyz     :     0.008775
      dx2y2   :     0.017727
      dxy     :     0.033498
      f0      :     0.000753  f :     0.006885
      f+1     :     0.001063
      f-1     :     0.000917
      f+2     :     0.000898
      f-2     :     0.000568
      f+3     :     0.000903
      f-3     :     0.001782
  4 C s       :     3.158855  s :     3.158855
      pz      :     0.930501  p :     2.567925
      px      :     0.796885
      py      :     0.840539
      dz2     :     0.009971  d :     0.132182
      dxz     :     0.021223
      dyz     :     0.026757
      dx2y2   :     0.039893
      dxy     :     0.034338
      f0      :     0.001070  f :     0.009316
      f+1     :     0.000867
      f-1     :     0.000844
      f+2     :     0.001004
      f-2     :     0.001347
      f+3     :     0.001145
      f-3     :     0.003040
  5 C s       :     3.042917  s :     3.042917
      pz      :     0.966604  p :     2.614928
      px      :     0.846113
      py      :     0.802211
      dz2     :     0.012689  d :     0.165589
      dxz     :     0.029151
      dyz     :     0.035854
      dx2y2   :     0.051955
      dxy     :     0.035939
      f0      :     0.001691  f :     0.015261
      f+1     :     0.001560
      f-1     :     0.001429
      f+2     :     0.001298
      f-2     :     0.002377
      f+3     :     0.001958
      f-3     :     0.004947
  6 O s       :     3.767196  s :     3.767196
[...]
      f+1     :     0.000296
      f-1     :     0.000207
      f+2     :     0.000094
      f-2     :     0.000145
      f+3     :     0.000263
      f-3     :     0.000306
  8 C s       :     3.194285  s :     3.194285
      pz      :     0.948588  p :     2.926469
      px      :     0.919089
      py      :     1.058792
      dz2     :     0.012402  d :     0.088434
      dxz     :     0.024721
      dyz     :     0.021505
      dx2y2   :     0.011322
      dxy     :     0.018484
      f0      :     0.000822  f :     0.005398
      f+1     :     0.000803
      f-1     :     0.000577
      f+2     :     0.001272
      f-2     :     0.000482
      f+3     :     0.000597
      f-3     :     0.000845
  9 C s       :     3.264543  s :     3.264543
      pz      :     1.004021  p :     2.830959
      px      :     0.716248
      py      :     1.110690
      dz2     :     0.018738  d :     0.102528
      dxz     :     0.018859
      dyz     :     0.025131
      dx2y2   :     0.024293
      dxy     :     0.015506
      f0      :     0.001274  f :     0.007169
      f+1     :     0.000929
      f-1     :     0.000642
      f+2     :     0.001692
      f-2     :     0.000433
      f+3     :     0.000994
      f-3     :     0.001204
 10 N s       :     3.423044  s :     3.423044
      pz      :     1.274722  p :     3.763538
      px      :     1.209094
      py      :     1.279722
      dz2     :     0.003302  d :     0.044283
      dxz     :     0.014954
      dyz     :     0.006284
      dx2y2   :     0.005729
      dxy     :     0.014012
      f0      :     0.000160  f :     0.001903
      f+1     :     0.000320
      f-1     :     0.000222
      f+2     :     0.000466
      f-2     :     0.000062
      f+3     :     0.000305
      f-3     :     0.000368
 11 H s       :     0.635760  s :     0.635760
      pz      :     0.007572  p :     0.032556
      px      :     0.008173
      py      :     0.016812
 12 H s       :     0.630966  s :     0.630966
      pz      :     0.015424  p :     0.032456
      px      :     0.009966
      py      :     0.007065
 13 H s       :     0.636117  s :     0.636117
      pz      :     0.012994  p :     0.032551
      px      :     0.007079
      py      :     0.012477
 14 H s       :     0.832041  s :     0.832041
      pz      :     0.005342  p :     0.021769
      px      :     0.005338
      py      :     0.011089
 15 H s       :     0.858144  s :     0.858144
      pz      :     0.005324  p :     0.021672
      px      :     0.005172
      py      :     0.011175
 16 H s       :     0.847778  s :     0.847778
      pz      :     0.005085  p :     0.021774
      px      :     0.006485
      py      :     0.010203
 17 H s       :     0.592235  s :     0.592235
      pz      :     0.014698  p :     0.044647
      px      :     0.011166
      py      :     0.018783
 18 H s       :     0.603159  s :     0.603159
      pz      :     0.015091  p :     0.045629
      px      :     0.019690
      py      :     0.010847
 19 H s       :     0.833804  s :     0.833804
      pz      :     0.005614  p :     0.021100
      px      :     0.005214
      py      :     0.010273
 20 H s       :     0.837847  s :     0.837847
      pz      :     0.008437  p :     0.021024
      px      :     0.004640
      py      :     0.007947
 21 H s       :     0.805148  s :     0.805148
      pz      :     0.009137  p :     0.020951
      px      :     0.003506
      py      :     0.008308
 22 H s       :     0.803103  s :     0.803103
      pz      :     0.005755  p :     0.020942
      px      :     0.004061
      py      :     0.011125


                     *******************************
                     * LOEWDIN POPULATION ANALYSIS *
                     *******************************

----------------------
LOEWDIN ATOMIC CHARGES
----------------------
   0 C :   -0.143538
   1 C :   -0.103484
   2 C :   -0.276384
   3 C :   -0.136838
   4 C :   -0.164856
   5 C :   -0.270970
   6 O :    0.075102
   7 O :    0.081898
   8 C :   -0.220851
   9 C :   -0.238822
  10 N :    0.189852
  11 H :    0.228278
  12 H :    0.229429
  13 H :    0.228199
  14 H :    0.158585
  15 H :    0.160693
  16 H :    0.155752
  17 H :    0.215903
  18 H :    0.206598
  19 H :    0.158480
  20 H :    0.158289
  21 H :    0.154380
  22 H :    0.154306

-------------------------------
LOEWDIN REDUCED ORBITAL CHARGES
-------------------------------
  0 C s       :     2.768240  s :     2.768240
      pz      :     0.933953  p :     2.962296
      px      :     1.038000
      py      :     0.990342
      dz2     :     0.027689  d :     0.371019
      dxz     :     0.068409
      dyz     :     0.033533
      dx2y2   :     0.105992
      dxy     :     0.135397
      f0      :     0.003346  f :     0.041983
      f+1     :     0.004585
      f-1     :     0.003148
      f+2     :     0.005628
      f-2     :     0.004704
      f+3     :     0.007775
      f-3     :     0.012798
  1 C s       :     2.760185  s :     2.760185
      pz      :     0.932911  p :     2.940544
      px      :     1.010346
      py      :     0.997287
      dz2     :     0.027488  d :     0.361416
      dxz     :     0.066353
      dyz     :     0.030735
      dx2y2   :     0.123972
      dxy     :     0.112868
      f0      :     0.003322  f :     0.041339
      f+1     :     0.004612
      f-1     :     0.002959
      f+2     :     0.005629
      f-2     :     0.004459
      f+3     :     0.007682
      f-3     :     0.012678
  2 C s       :     2.720830  s :     2.720830
      pz      :     0.903837  p :     2.800528
      px      :     0.836239
      py      :     1.060452
      dz2     :     0.055757  d :     0.663090
      dxz     :     0.134155
      dyz     :     0.079440
      dx2y2   :     0.207642
      dxy     :     0.186097
      f0      :     0.006441  f :     0.091936
      f+1     :     0.010354
      f-1     :     0.005000
      f+2     :     0.015973
      f-2     :     0.008517
      f+3     :     0.015785
      f-3     :     0.029867
  3 C s       :     2.763050  s :     2.763050
      pz      :     0.925806  p :     2.948261
      px      :     1.021951
      py      :     1.000504
      dz2     :     0.032750  d :     0.383634
      dxz     :     0.063528
      dyz     :     0.034901
      dx2y2   :     0.107579
      dxy     :     0.144877
      f0      :     0.002985  f :     0.041894
      f+1     :     0.004090
      f-1     :     0.003664
      f+2     :     0.006904
      f-2     :     0.003230
      f+3     :     0.007599
      f-3     :     0.013421
  4 C s       :     2.711643  s :     2.711643
      pz      :     0.868289  p :     2.873034
      px      :     0.959231
      py      :     1.045514
      dz2     :     0.036102  d :     0.523348
      dxz     :     0.070667
      dyz     :     0.089742
      dx2y2   :     0.172433
      dxy     :     0.154404
      f0      :     0.003958  f :     0.056831
      f+1     :     0.004102
      f-1     :     0.004703
      f+2     :     0.005724
      f-2     :     0.008729
      f+3     :     0.008909
      f-3     :     0.020705
  5 C s       :     2.719764  s :     2.719764
      pz      :     0.903391  p :     2.795143
      px      :     0.992168
      py      :     0.899584
      dz2     :     0.052724  d :     0.664127
      dxz     :     0.098582
      dyz     :     0.118369
      dx2y2   :     0.199129
      dxy     :     0.195323
      f0      :     0.006815  f :     0.091937
      f+1     :     0.006106
      f-1     :     0.008291
      f+2     :     0.008581
      f-2     :     0.015812
      f+3     :     0.017109
      f-3     :     0.029222
  6 O s       :     3.330135  s :     3.330135
      pz      :     1.686097  p :     4.520420
      px      :     1.386801
      py      :     1.447522
      dz2     :     0.007822  d :     0.069603
      dxz     :     0.015404
      dyz     :     0.002194
      dx2y2   :     0.023504
      dxy     :     0.020679
      f0      :     0.000485  f :     0.004740
      f+1     :     0.000718
      f-1     :     0.000302
      f+2     :     0.000718
      f-2     :     0.000122
      f+3     :     0.001041
      f-3     :     0.001354
  7 O s       :     3.334604  s :     3.334604
      pz      :     1.683254  p :     4.508816
      px      :     1.299719
      py      :     1.525842
      dz2     :     0.007150  d :     0.069922
      dxz     :     0.006784
      dyz     :     0.010777
      dx2y2   :     0.027316
      dxy     :     0.017895
      f0      :     0.000512  f :     0.004761
      f+1     :     0.000493
      f-1     :     0.000403
      f+2     :     0.000254
      f-2     :     0.000602
      f+3     :     0.000907
      f-3     :     0.001589
  8 C s       :     2.773399  s :     2.773399
      pz      :     1.012361  p :     3.032590
      px      :     0.989522
      py      :     1.030707
      dz2     :     0.059459  d :     0.376916
      dxz     :     0.096094
      dyz     :     0.086904
      dx2y2   :     0.068981
      dxy     :     0.065479
      f0      :     0.006372  f :     0.037946
      f+1     :     0.006841
      f-1     :     0.003477
      f+2     :     0.006088
      f-2     :     0.004663
      f+3     :     0.004571
      f-3     :     0.005935
  9 C s       :     2.807900  s :     2.807900
      pz      :     1.058881  p :     2.963838
      px      :     0.830158
      py      :     1.074799
      dz2     :     0.076333  d :     0.419476
      dxz     :     0.084234
      dyz     :     0.091168
      dx2y2   :     0.108474
      dxy     :     0.059266
      f0      :     0.008529  f :     0.047607
      f+1     :     0.007817
      f-1     :     0.003756
      f+2     :     0.008136
      f-2     :     0.004007
      f+3     :     0.007228
      f-3     :     0.008134
 10 N s       :     2.984192  s :     2.984192
      pz      :     1.225539  p :     3.667773
      px      :     1.215866
      py      :     1.226367
      dz2     :     0.014609  d :     0.149026
      dxz     :     0.044256
      dyz     :     0.022170
      dx2y2   :     0.028546
      dxy     :     0.039444
      f0      :     0.000960  f :     0.009157
      f+1     :     0.001694
      f-1     :     0.000718
      f+2     :     0.001479
      f-2     :     0.000921
      f+3     :     0.001257
      f-3     :     0.002127
 11 H s       :     0.672625  s :     0.672625
      pz      :     0.022051  p :     0.099097
      px      :     0.022720
      py      :     0.054326
 12 H s       :     0.671253  s :     0.671253
      pz      :     0.050337  p :     0.099318
      px      :     0.028534
      py      :     0.020447
 13 H s       :     0.672713  s :     0.672713
      pz      :     0.040615  p :     0.099088
      px      :     0.019515
      py      :     0.038958
 14 H s       :     0.781671  s :     0.781671
      pz      :     0.014789  p :     0.059744
      px      :     0.015113
      py      :     0.029842
 15 H s       :     0.779432  s :     0.779432
      pz      :     0.014931  p :     0.059875
      px      :     0.014703
      py      :     0.030241
 16 H s       :     0.784733  s :     0.784733
      pz      :     0.014125  p :     0.059515
      px      :     0.017786
      py      :     0.027604
 17 H s       :     0.636069  s :     0.636069
      pz      :     0.040033  p :     0.148028
      px      :     0.029249
      py      :     0.078747
 18 H s       :     0.643466  s :     0.643466
      pz      :     0.041818  p :     0.149935
      px      :     0.072972
      py      :     0.035145
 19 H s       :     0.782650  s :     0.782650
      pz      :     0.014899  p :     0.058870
      px      :     0.013889
      py      :     0.030082
 20 H s       :     0.782700  s :     0.782700
      pz      :     0.022481  p :     0.059012
      px      :     0.012517
      py      :     0.024013
 21 H s       :     0.784438  s :     0.784438
      pz      :     0.025566  p :     0.061182
      px      :     0.009843
      py      :     0.025773
 22 H s       :     0.784450  s :     0.784450
      pz      :     0.016191  p :     0.061244
      px      :     0.011375
      py      :     0.033678


                      *****************************
                      * MAYER POPULATION ANALYSIS *
                      *****************************

  NA   - Mulliken gross atomic population
  ZA   - Total nuclear charge
  QA   - Mulliken gross atomic charge
  VA   - Mayer's total valence
  BVA  - Mayer's bonded valence
  FA   - Mayer's free valence

  ATOM       NA         ZA         QA         VA         BVA        FA
  0 C      6.2088     6.0000    -0.2088     3.8079     3.8079    -0.0000
  1 C      6.3424     6.0000    -0.3424     4.0036     4.0036     0.0000
  2 C      5.8207     6.0000     0.1793     3.8105     3.8105     0.0000
  3 C      6.2680     6.0000    -0.2680     3.9519     3.9519     0.0000
  4 C      5.7987     6.0000     0.2013     3.7011     3.7011     0.0000
  5 C      5.8419     6.0000     0.1581     4.0407     4.0407    -0.0000
  6 O      8.4259     8.0000    -0.4259     2.0909     2.0909     0.0000
  7 O      8.3879     8.0000    -0.3879     2.1343     2.1343    -0.0000
  8 C      6.2146     6.0000    -0.2146     3.8845     3.8845    -0.0000
  9 C      6.2052     6.0000    -0.2052     3.8744     3.8744    -0.0000
 10 N      7.2328     7.0000    -0.2328     3.5518     3.5518     0.0000
 11 H      0.6683     1.0000     0.3317     0.8914     0.8914     0.0000
 12 H      0.6634     1.0000     0.3366     0.8858     0.8858    -0.0000
 13 H      0.6687     1.0000     0.3313     0.8919     0.8919     0.0000
 14 H      0.8538     1.0000     0.1462     0.9711     0.9711     0.0000
 15 H      0.8798     1.0000     0.1202     0.9882     0.9882     0.0000
 16 H      0.8696     1.0000     0.1304     0.9693     0.9693     0.0000
 17 H      0.6369     1.0000     0.3631     0.8852     0.8852    -0.0000
 18 H      0.6488     1.0000     0.3512     0.8999     0.8999    -0.0000
 19 H      0.8549     1.0000     0.1451     0.9689     0.9689    -0.0000
 20 H      0.8589     1.0000     0.1411     0.9678     0.9678    -0.0000
 21 H      0.8261     1.0000     0.1739     0.9650     0.9650    -0.0000
 22 H      0.8240     1.0000     0.1760     0.9618     0.9618     0.0000

  Mayer bond orders larger than 0.100000
B(  0-C ,  2-C ) :   1.3326 B(  0-C ,  3-C ) :   1.3603 B(  0-C , 14-H ) :   0.9523 
B(  1-C ,  4-C ) :   1.3475 B(  1-C ,  5-C ) :   1.4203 B(  1-C , 15-H ) :   0.9923 
B(  2-C ,  5-C ) :   1.2535 B(  2-C ,  6-O ) :   1.1091 B(  3-C ,  4-C ) :   1.3588 
B(  3-C , 16-H ) :   0.9692 B(  4-C ,  8-C ) :   0.9270 B(  5-C ,  7-O ) :   1.2157 
B(  6-O , 17-H ) :   0.8500 B(  7-O , 18-H ) :   0.8452 B(  8-C ,  9-C ) :   1.0051 
B(  8-C , 19-H ) :   0.9472 B(  8-C , 20-H ) :   0.9410 B(  9-C , 10-N ) :   0.9215 
B(  9-C , 21-H ) :   0.9469 B(  9-C , 22-H ) :   0.9455 B( 10-N , 11-H ) :   0.8708 
B( 10-N , 12-H ) :   0.8691 B( 10-N , 13-H ) :   0.8702 

-------
TIMINGS
-------

Total SCF time: 0 days 0 hours 0 min 10 sec 

Total time                  ....      10.461 sec
Sum of individual times     ....       9.289 sec  ( 88.8%)

Fock matrix formation       ....       7.538 sec  ( 72.1%)
  Split-RI-J                ....       1.633 sec  ( 21.7% of F)
  XC integration            ....       2.526 sec  ( 33.5% of F)
    Basis function eval.    ....       0.405 sec  ( 16.0% of XC)
    Density eval.           ....       0.561 sec  ( 22.2% of XC)
    XC-Functional eval.     ....       0.036 sec  (  1.4% of XC)
    XC-Potential eval.      ....       0.408 sec  ( 16.1% of XC)
Diagonalization             ....       0.078 sec  (  0.7%)
Density matrix formation    ....       0.032 sec  (  0.3%)
Population analysis         ....       0.115 sec  (  1.1%)
Initial guess               ....       0.156 sec  (  1.5%)
Orbital Transformation      ....       0.000 sec  (  0.0%)
Orbital Orthonormalization  ....       0.136 sec  (  1.3%)
DIIS solution               ....       0.067 sec  (  0.6%)
SOSCF solution              ....       0.508 sec  (  4.9%)
Grid generation             ....       0.795 sec  (  7.6%)

Maximum memory used throughout the entire SCF-calculation: 58.0 MB


-------------------------------------------------------------------------------
                          DFT DISPERSION CORRECTION                            
                                                                               
                              DFTD3 V3.1  Rev 1                                
                          USING Becke-Johnson damping                          
-------------------------------------------------------------------------------
The PBE functional is recognized
Active option DFTDOPT                   ...         4   

molecular C6(AA) [au] = 4885.187946 


            DFT-D V3
 parameters
 s6 scaling factor         :     1.0000 
 a1 scaling factor         :     0.4289 
 s8 scaling factor         :     0.7875 
 a2 scaling factor         :     4.4407 
 ad hoc parameters k1-k3   :    16.0000     1.3333    -4.0000 

 Edisp/kcal,au: -14.582802481796  -0.023239172521 
 E6   /kcal   : -10.350515378 
 E8   /kcal   :  -4.232287104 
 % E8         :  29.022453739 

-------------------------   ----------------
Dispersion correction           -0.023239173
-------------------------   ----------------


-------------------------   --------------------
FINAL SINGLE POINT ENERGY      -516.749201050525
-------------------------   --------------------

                                *** OPTIMIZATION RUN DONE ***

                            ***************************************
                            *     ORCA property calculations      *
                            ***************************************

                                    ---------------------
                                    Active property flags
                                    ---------------------
   (+) Dipole Moment


------------------------------------------------------------------------------
                       ORCA ELECTRIC PROPERTIES CALCULATION
------------------------------------------------------------------------------

Dipole Moment Calculation                       ... on
Quadrupole Moment Calculation                   ... off
Polarizability Calculation                      ... off
GBWName                                         ... 5_M0005.gbw
Electron density                                ... 5_M0005.scfp
The origin for moment calculation is the CENTER OF MASS  = (-0.200943,  0.021871  0.026051)

-------------
DIPOLE MOMENT
-------------
                                X             Y             Z
Electronic contribution:     -8.69249       1.22922      -0.00229
Nuclear contribution   :     15.88109      -1.95623      -0.87959
                        -----------------------------------------
Total Dipole Moment    :      7.18860      -0.72701      -0.88189
                        -----------------------------------------
Magnitude (a.u.)       :      7.27889
Magnitude (Debye)      :     18.50147



--------------------
Rotational spectrum 
--------------------
 
Rotational constants in cm-1:     0.085342     0.017771     0.015452 
Rotational constants in MHz :  2558.475875   532.758621   463.236107 

 Dipole components along the rotational axes: 
x,y,z [a.u.] :     7.200399    -0.633986    -0.857082 
x,y,z [Debye]:    18.301959    -1.611464    -2.178529 

 
No protocol specified

Timings for individual modules:

Sum of individual times         ...      288.824 sec (=   4.814 min)
GTO integral calculation        ...       18.243 sec (=   0.304 min)   6.3 %
SCF iterations                  ...      205.053 sec (=   3.418 min)  71.0 %
SCF Gradient evaluation         ...       64.784 sec (=   1.080 min)  22.4 %
Geometry relaxation             ...        0.743 sec (=   0.012 min)   0.3 %



                             ****ORCA TERMINATED NORMALLY****
TOTAL RUN TIME: 0 days 0 hours 22 minutes 58 seconds 220 msec
