
                                 *****************
                                 * O   R   C   A *
                                 *****************

                                            #,                                       
                                            ###                                      
                                            ####                                     
                                            #####                                    
                                            ######                                   
                                           ########,                                 
                                     ,,################,,,,,                         
                               ,,#################################,,                 
                          ,,##########################################,,             
                       ,#########################################, ''#####,          
                    ,#############################################,,   '####,        
                  ,##################################################,,,,####,       
                ,###########''''           ''''###############################       
              ,#####''   ,,,,##########,,,,          '''####'''          '####       
            ,##' ,,,,###########################,,,                        '##       
           ' ,,###''''                  '''############,,,                           
         ,,##''                                '''############,,,,        ,,,,,,###''
      ,#''                                            '''#######################'''  
     '                                                          ''''####''''         
             ,#######,   #######,   ,#######,      ##                                
            ,#'     '#,  ##    ##  ,#'     '#,    #''#        ######   ,####,        
            ##       ##  ##   ,#'  ##            #'  '#       #        #'  '#        
            ##       ##  #######   ##           ,######,      #####,   #    #        
            '#,     ,#'  ##    ##  '#,     ,#' ,#      #,         ##   #,  ,#        
             '#######'   ##     ##  '#######'  #'      '#     #####' # '####'        



                  #######################################################
                  #                        -***-                        #
                  #          Department of theory and spectroscopy      #
                  #    Directorship and core code : Frank Neese         #
                  #        Max Planck Institute fuer Kohlenforschung    #
                  #                Kaiser Wilhelm Platz 1               #
                  #                 D-45470 Muelheim/Ruhr               #
                  #                      Germany                        #
                  #                                                     #
                  #                  All rights reserved                #
                  #                        -***-                        #
                  #######################################################


                         Program Version 5.0.2 -  RELEASE  -


 With contributions from (in alphabetic order):
   Daniel Aravena         : Magnetic Suceptibility
   Michael Atanasov       : Ab Initio Ligand Field Theory (pilot matlab implementation)
   Alexander A. Auer      : GIAO ZORA, VPT2 properties, NMR spectrum
   Ute Becker             : Parallelization
   Giovanni Bistoni       : ED, misc. LED, open-shell LED, HFLD
   Martin Brehm           : Molecular dynamics
   Dmytro Bykov           : SCF Hessian
   Vijay G. Chilkuri      : MRCI spin determinant printing, contributions to CSF-ICE
   Dipayan Datta          : RHF DLPNO-CCSD density
   Achintya Kumar Dutta   : EOM-CC, STEOM-CC
   Dmitry Ganyushin       : Spin-Orbit,Spin-Spin,Magnetic field MRCI
   Miquel Garcia          : C-PCM and meta-GGA Hessian, CC/C-PCM, Gaussian charge scheme
   Yang Guo               : DLPNO-NEVPT2, F12-NEVPT2, CIM, IAO-localization
   Andreas Hansen         : Spin unrestricted coupled pair/coupled cluster methods
   Benjamin Helmich-Paris : MC-RPA, TRAH-SCF, COSX integrals
   Lee Huntington         : MR-EOM, pCC
   Robert Izsak           : Overlap fitted RIJCOSX, COSX-SCS-MP3, EOM
   Marcus Kettner         : VPT2
   Christian Kollmar      : KDIIS, OOCD, Brueckner-CCSD(T), CCSD density, CASPT2, CASPT2-K
   Simone Kossmann        : Meta GGA functionals, TD-DFT gradient, OOMP2, MP2 Hessian
   Martin Krupicka        : Initial AUTO-CI
   Lucas Lang             : DCDCAS
   Marvin Lechner         : AUTO-CI (C++ implementation), FIC-MRCC
   Dagmar Lenk            : GEPOL surface, SMD
   Dimitrios Liakos       : Extrapolation schemes; Compound Job, initial MDCI parallelization
   Dimitrios Manganas     : Further ROCIS development; embedding schemes
   Dimitrios Pantazis     : SARC Basis sets
   Anastasios Papadopoulos: AUTO-CI, single reference methods and gradients
   Taras Petrenko         : DFT Hessian,TD-DFT gradient, ASA, ECA, R-Raman, ABS, FL, XAS/XES, NRVS
   Peter Pinski           : DLPNO-MP2, DLPNO-MP2 Gradient
   Christoph Reimann      : Effective Core Potentials
   Marius Retegan         : Local ZFS, SOC
   Christoph Riplinger    : Optimizer, TS searches, QM/MM, DLPNO-CCSD(T), (RO)-DLPNO pert. Triples
   Tobias Risthaus        : Range-separated hybrids, TD-DFT gradient, RPA, STAB
   Michael Roemelt        : Original ROCIS implementation
   Masaaki Saitow         : Open-shell DLPNO-CCSD energy and density
   Barbara Sandhoefer     : DKH picture change effects
   Avijit Sen             : IP-ROCIS
   Kantharuban Sivalingam : CASSCF convergence, NEVPT2, FIC-MRCI
   Bernardo de Souza      : ESD, SOC TD-DFT
   Georgi Stoychev        : AutoAux, RI-MP2 NMR, DLPNO-MP2 response
   Willem Van den Heuvel  : Paramagnetic NMR
   Boris Wezisla          : Elementary symmetry handling
   Frank Wennmohs         : Technical directorship


 We gratefully acknowledge several colleagues who have allowed us to
 interface, adapt or use parts of their codes:
   Stefan Grimme, W. Hujo, H. Kruse, P. Pracht,  : VdW corrections, initial TS optimization,
                  C. Bannwarth, S. Ehlert          DFT functionals, gCP, sTDA/sTD-DF
   Ed Valeev, F. Pavosevic, A. Kumar             : LibInt (2-el integral package), F12 methods
   Garnet Chan, S. Sharma, J. Yang, R. Olivares  : DMRG
   Ulf Ekstrom                                   : XCFun DFT Library
   Mihaly Kallay                                 : mrcc  (arbitrary order and MRCC methods)
   Jiri Pittner, Ondrej Demel                    : Mk-CCSD
   Frank Weinhold                                : gennbo (NPA and NBO analysis)
   Christopher J. Cramer and Donald G. Truhlar   : smd solvation model
   Lars Goerigk                                  : TD-DFT with DH, B97 family of functionals
   V. Asgeirsson, H. Jonsson                     : NEB implementation
   FAccTs GmbH                                   : IRC, NEB, NEB-TS, DLPNO-Multilevel, CI-OPT
                                                   MM, QMMM, 2- and 3-layer-ONIOM, Crystal-QMMM,
                                                   LR-CPCM, SF, NACMEs, symmetry and pop. for TD-DFT,
                                                   nearIR, NL-DFT gradient (VV10), updates on ESD,
                                                   ML-optimized integration grids
   S Lehtola, MJT Oliveira, MAL Marques          : LibXC Library
   Liviu Ungur et al                             : ANISO software


 Your calculation uses the libint2 library for the computation of 2-el integrals
 For citations please refer to: http://libint.valeyev.net

 Your ORCA version has been built with support for libXC version: 5.1.0
 For citations please refer to: https://tddft.org/programs/libxc/

 This ORCA versions uses:
   CBLAS   interface :  Fast vector & matrix operations
   LAPACKE interface :  Fast linear algebra routines
   SCALAPACK package :  Parallel linear algebra routines
   Shared memory     :  Shared parallel matrices
   BLAS/LAPACK       :  OpenBLAS 0.3.15  USE64BITINT DYNAMIC_ARCH NO_AFFINITY Haswell SINGLE_THREADED
        Core in use  :  Haswell
   Copyright (c) 2011-2014, The OpenBLAS Project


XCFun DFT library Copyright 2009-2010 Ulf Ekstrom and contributors.
See http://admol.org/xcfun for more information.
This is free software; see the source code for copying conditions.
There is ABSOLUTELY NO WARRANTY; not even for MERCHANTABILITY or FITNESS FOR A PARTICULAR PURPOSE.
For details see the documentation.
Scientific users of this library should cite U. Ekstrom, L. Visscher, R. Bast, A. J. Thorvaldsen and K. Ruud;
J.Chem.Theor.Comp. 2010, DOI: 10.1021/ct100117s
XCFun Version 0.99 

================================================================================

----- Orbital basis set information -----
Your calculation utilizes the basis: def2-TZVP
   F. Weigend and R. Ahlrichs, Phys. Chem. Chem. Phys. 7, 3297 (2005).

----- AuxJ basis set information -----
Your calculation utilizes the auxiliary basis: def2/J
   F. Weigend, Phys. Chem. Chem. Phys. 8, 1057 (2006).

================================================================================
                                        WARNINGS
                       Please study these warnings very carefully!
================================================================================


WARNING: your system is open-shell and RHF/RKS was chosen
  ===> : WILL SWITCH to UHF/UKS

INFO   : Checking CIS options ...

WARNING: Minnesota functionals are quite sensitive to the integration grid.
         see SE Wheeler, KN Houk, JCTC 2010, 6, 395,
             N Mardirossian, M Head-Gordon, JCTC 2016, 12, 4303.
         DEFGRID3 seems to be a minimum grid for reliable results with these functionals!
  ===> : Please increase the integration grid!


WARNING: CIS/ROCIS methods need fully converged wavefunctions
  ===> : Setting SCFConvForced true
         You can overwrite this default with %scf ConvForced false 


INFO   : the flag for use of the SHARK integral package has been found!

================================================================================
                                       INPUT FILE
================================================================================
NAME = ex.inp
|  1> ! M062X TightSCF def2-TZVP slowconv PModel cpcm(water) 
|  2> 
|  3> %tddft
|  4>  nroots 12
|  5>  maxdim 60
|  6>  triplets false
|  7> end
|  8> 
|  9> %output
| 10> Print[ P_Basis ] 2
| 11> Print[ P_MOs ] 1
| 12> end
| 13> 
| 14> %pal nprocs=16 end
| 15> %base "cu2+"
| 16> *xyz 2 2
| 17>   Cu  2.79467885448518     -2.80596664371773      0.03172156093816
| 18> *
| 19> 
| 20>                          ****END OF INPUT****
================================================================================

                       ****************************
                       * Single Point Calculation *
                       ****************************

---------------------------------
CARTESIAN COORDINATES (ANGSTROEM)
---------------------------------
  Cu     2.794679   -2.805967    0.031722

----------------------------
CARTESIAN COORDINATES (A.U.)
----------------------------
  NO LB      ZA    FRAG     MASS         X           Y           Z
   0 Cu   29.0000    0    63.550    5.281178   -5.302508    0.059945

--------------------------------
INTERNAL COORDINATES (ANGSTROEM)
--------------------------------
 Cu     0   0   0     0.000000000000     0.00000000     0.00000000

---------------------------
INTERNAL COORDINATES (A.U.)
---------------------------
 Cu     0   0   0     0.000000000000     0.00000000     0.00000000

---------------------
BASIS SET INFORMATION
---------------------
There are 1 groups of distinct atoms

 Group   1 Type Cu  : 17s11p7d1f contracted to 6s4p4d1f pattern {842111/6311/4111/1}

Atom   0Cu   basis set group =>   1

-------------------------
BASIS SET IN INPUT FORMAT
-------------------------

 # Basis set for element : Cu
 NewGTO Cu
 S 8 
   1  377518.7992300000      0.0002387916
   2   56589.9843110000      0.0018515678
   3   12878.7117060000      0.0096297932
   4    3645.3752143000      0.0391615178
   5    1187.0072945000      0.1276025095
   6     426.4642190200      0.3034008838
   7     165.7066016400      0.4347519283
   8      65.5989427070      0.2293079504
 S 4 
   1     414.4126581100     -0.0249866525
   2     128.3205603900     -0.1186119709
   3      20.6220897500      0.5598271484
   4       8.7821226045      0.5288643080
 S 2 
   1      13.7413720060     -0.3699327832
   2       2.2431246833      1.1676087386
 S 1 
   1       0.8937054908      1.0000000000
 S 1 
   1       0.1083669953      1.0000000000
 S 1 
   1       0.0388061781      1.0000000000
 P 6 
   1    2034.7596692000      0.0026776186
   2     481.9046810600      0.0217785896
   3     154.6748296300      0.1026336485
   4      57.7405769690      0.2966548980
   5      23.0990528110      0.4791122399
   6       9.3882478591      0.2770928296
 P 3 
   1      37.5961712100     -0.0207301505
   2       5.1240690810      0.3927002052
   3       2.0119996085      0.6706714235
 P 1 
   1       0.7386068600      1.0000000000
 D 4 
   1      74.1294606370      0.0222258533
   2      21.3598425870      0.1340497188
   3       7.4995240537      0.3966245361
   4       2.7601394169      0.6247541952
 D 1 
   1       0.9536206124      1.0000000000
 D 1 
   1       0.2842086252      1.0000000000
 P 1 
   1       0.1550650000      1.0000000000
 D 1 
   1       0.0850000000      1.0000000000
 F 1 
   1       2.2330000000      1.0000000000
  end;

---------------------------------
AUXILIARY/J BASIS SET INFORMATION
---------------------------------
There are 1 groups of distinct atoms

 Group   1 Type Cu  : 19s5p5d3f3g contracted to 8s5p4d3f3g pattern {121111111/11111/2111/111/111}

Atom   0Cu   basis set group =>   1

-------------------------------------
AUXILIARY/J BASIS SET IN INPUT FORMAT
-------------------------------------

 # Auxiliary/J basis set for element : Cu
 NewAuxJGTO Cu
 S 12 
   1   22760.1575320000      0.0282764819
   2    7272.8802874000      0.0691320820
   3    2725.0817134000      0.1660481474
   4    1480.3337422000      0.1462232042
   5     870.7845298000      0.2312796482
   6     533.0245964000      0.1980761869
   7     313.5438715000      0.1178844884
   8     112.8979167000     -0.0569562562
   9      66.4105374000      0.1110331733
  10      39.0650209000      0.2298430798
  11      22.9794234000      0.1324785707
  12      13.5173075000     -0.0781371994
 S 1 
   1       4.3193796000      1.0000000000
 S 1 
   1       2.5408114000      1.0000000000
 S 1 
   1       1.5552814000      1.0000000000
 S 1 
   1       0.9148714000      1.0000000000
 S 1 
   1       0.3294183000      1.0000000000
 S 1 
   1       0.1139855000      1.0000000000
 S 1 
   1       0.0670503000     -1.0000000000
 P 1 
   1      10.4327236000      1.0000000000
 P 1 
   1       4.0251086000     -1.0000000000
 P 1 
   1       1.5534382000      1.0000000000
 P 1 
   1       0.5996423000      1.0000000000
 P 1 
   1       0.2314823000     -1.0000000000
 D 2 
   1      19.6140080000     -1.0547292095
   2       7.2975860000      1.3124309240
 D 1 
   1       2.7500946000     -1.0000000000
 D 1 
   1       1.0444408000     -1.0000000000
 D 1 
   1       0.3976934000      1.0000000000
 F 1 
   1       5.8169042000     -1.0000000000
 F 1 
   1       0.7156542000      1.0000000000
 F 1 
   1       0.0892019000     -1.0000000000
 G 1 
   1      15.3794722000      1.0000000000
 G 1 
   1       4.2631148000      1.0000000000
 G 1 
   1       1.1926492000     -1.0000000000
  end;



           ************************************************************
           *        Program running with 16 parallel MPI-processes    *
           *              working on a common directory               *
           ************************************************************
------------------------------------------------------------------------------
                           ORCA GTO INTEGRAL CALCULATION
                           -- RI-GTO INTEGRALS CHOSEN --
------------------------------------------------------------------------------
------------------------------------------------------------------------------
                   ___                                                        
                  /   \      - P O W E R E D   B Y -                         
                 /     \                                                     
                 |  |  |   _    _      __       _____    __    __             
                 |  |  |  | |  | |    /  \     |  _  \  |  |  /  |          
                  \  \/   | |  | |   /    \    | | | |  |  | /  /          
                 / \  \   | |__| |  /  /\  \   | |_| |  |  |/  /          
                |  |  |   |  __  | /  /__\  \  |    /   |      \           
                |  |  |   | |  | | |   __   |  |    \   |  |\   \          
                \     /   | |  | | |  |  |  |  | |\  \  |  | \   \       
                 \___/    |_|  |_| |__|  |__|  |_| \__\ |__|  \__/        
                                                                              
                      - O R C A' S   B I G   F R I E N D -                    
                                      &                                       
                       - I N T E G R A L  F E E D E R -                       
                                                                              
 v1 FN, 2020, v2 2021                                                         
------------------------------------------------------------------------------


Reading SHARK input file cu2+.SHARKINP.tmp ... ok
----------------------
SHARK INTEGRAL PACKAGE
----------------------

Number of atoms                             ...      1
Number of basis functions                   ...     45
Number of shells                            ...     15
Maximum angular momentum                    ...      3
Integral batch strategy                     ... SHARK/LIBINT Hybrid
RI-J (if used) integral strategy            ... SPLIT-RIJ (Revised 2003 algorithm where possible)
Printlevel                                  ...      1
Contraction scheme used                     ... SEGMENTED contraction
Coulomb Range Separation                    ... NOT USED
Exchange Range Separation                   ... NOT USED
Finite Nucleus Model                        ... NOT USED
Auxiliary Coulomb fitting basis             ... AVAILABLE
   # of basis functions in Aux-J            ...     91
   # of shells in Aux-J                     ...     23
   Maximum angular momentum in Aux-J        ...      4
Auxiliary J/K fitting basis                 ... NOT available
Auxiliary Correlation fitting basis         ... NOT available
Auxiliary 'external' fitting basis          ... NOT available
Integral threshold                          ...     2.500000e-11
Primitive cut-off                           ...     2.500000e-12
Primitive pair pre-selection threshold      ...     2.500000e-12

Calculating pre-screening integrals         ... done (  0.1 sec) Dimension = 15
Organizing shell pair data                  ... done (  0.0 sec)
Shell pair information
Total number of shell pairs                 ...       120
Shell pairs after pre-screening             ...       120
Total number of primitive shell pairs       ...       725
Primitive shell pairs kept                  ...       725
          la=0 lb=0:     21 shell pairs
          la=1 lb=0:     24 shell pairs
          la=1 lb=1:     10 shell pairs
          la=2 lb=0:     24 shell pairs
          la=2 lb=1:     16 shell pairs
          la=2 lb=2:     10 shell pairs
          la=3 lb=0:      6 shell pairs
          la=3 lb=1:      4 shell pairs
          la=3 lb=2:      4 shell pairs
          la=3 lb=3:      1 shell pairs

Calculating one electron integrals          ... done (  0.0 sec)
Calculating RI/J V-Matrix + Cholesky decomp.... done (  0.0 sec)
Calculating Nuclear repulsion               ... done (  0.0 sec) ENN=      0.000000000000 Eh

SHARK setup successfully completed in   0.2 seconds

Maximum memory used throughout the entire GTOINT-calculation: 17.3 MB


           ************************************************************
           *        Program running with 16 parallel MPI-processes    *
           *              working on a common directory               *
           ************************************************************
-------------------------------------------------------------------------------
                                 ORCA SCF
-------------------------------------------------------------------------------

------------
SCF SETTINGS
------------
Hamiltonian:
 Density Functional     Method          .... DFT(GTOs)
 Exchange Functional    Exchange        .... M062X
 Correlation Functional Correlation     .... M062X
 Gradients option       PostSCFGGA      .... off
 Hybrid DFT is turned on
   Fraction HF Exchange ScalHFX         ....  0.540000
   Scaling of DF-GGA-X  ScalDFX         ....  0.460000
   Scaling of DF-GGA-C  ScalDFC         ....  1.000000
   Scaling of DF-LDA-C  ScalLDAC        ....  1.000000
   Perturbative correction              ....  0.000000
   Density functional embedding theory  .... OFF
 RI-approximation to the Coulomb term is turned on
   Number of AuxJ basis functions       .... 91
   RIJ-COSX (HFX calculated with COS-X)).... on


General Settings:
 Integral files         IntName         .... cu2+
 Hartree-Fock type      HFTyp           .... UHF
 Total Charge           Charge          ....    2
 Multiplicity           Mult            ....    2
 Number of Electrons    NEL             ....   27
 Basis Dimension        Dim             ....   45
 Nuclear Repulsion      ENuc            ....      0.0000000000 Eh

Convergence Acceleration:
 DIIS                   CNVDIIS         .... on
   Start iteration      DIISMaxIt       ....     0
   Startup error        DIISStart       ....  0.200000
   # of expansion vecs  DIISMaxEq       ....     5
   Bias factor          DIISBfac        ....   1.050
   Max. coefficient     DIISMaxC        ....  10.000
 Trust-Rad. Augm. Hess. CNVTRAH         .... auto
   Auto Start mean grad. ratio tolernc. ....  1.125000
   Auto Start start iteration           ....    20
   Auto Start num. interpolation iter.  ....    10
   Max. Number of Micro iterations      ....    16
   Max. Number of Macro iterations      .... Maxiter - #DIIS iter
   Number of Davidson start vectors     ....     2
   Converg. threshold I  (grad. norm)   ....   1.000e-05
   Converg. threshold II (energy diff.) ....   1.000e-08
   Grad. Scal. Fac. for Micro threshold ....   0.100
   Minimum threshold for Micro iter.    ....   0.010
   NR start threshold (gradient norm)   ....   0.001
   Initial trust radius                 ....   0.400
   Minimum AH scaling param. (alpha)    ....   1.000
   Maximum AH scaling param. (alpha)    .... 1000.000
   Orbital update algorithm             .... Taylor
   White noise on init. David. guess    .... on
   Maximum white noise                  ....   0.010
   Quad. conv. algorithm                .... NR
 SOSCF                  CNVSOSCF        .... off
 Level Shifting         CNVShift        .... on
   Level shift para.    LevelShift      ....    0.2500
   Turn off err/grad.   ShiftErr        ....    0.0000
 Zerner damping         CNVZerner       .... off
 Static damping         CNVDamp         .... on
   Fraction old density DampFac         ....    0.8500
   Max. Damping (<1)    DampMax         ....    0.9800
   Min. Damping (>=0)   DampMin         ....    0.0000
   Turn off err/grad.   DampErr         ....    0.0300
 Fernandez-Rico         CNVRico         .... off

SCF Procedure:
 Maximum # iterations   MaxIter         ....   125
 SCF integral mode      SCFMode         .... Direct
   Integral package                     .... SHARK and LIBINT hybrid scheme
 Reset frequency        DirectResetFreq ....    20
 Integral Threshold     Thresh          ....  2.500e-11 Eh
 Primitive CutOff       TCut            ....  2.500e-12 Eh

Convergence Tolerance:
 Convergence Check Mode ConvCheckMode   .... Total+1el-Energy
 Convergence forced     ConvForced      .... 1
 Energy Change          TolE            ....  1.000e-08 Eh
 1-El. energy change                    ....  1.000e-05 Eh
 DIIS Error             TolErr          ....  5.000e-07


Diagonalization of the overlap matrix:
Smallest eigenvalue                        ... 7.073e-02
Time for diagonalization                   ...    0.001 sec
Threshold for overlap eigenvalues          ... 1.000e-08
Number of eigenvalues below threshold      ... 0
Time for construction of square roots      ...    0.001 sec
Total time needed                          ...    0.002 sec

Time for model grid setup =    0.039 sec

------------------------------
INITIAL GUESS: MODEL POTENTIAL
------------------------------
Loading Hartree-Fock densities                     ... done
Calculating cut-offs                               ... done
Initializing the effective Hamiltonian             ... done
Setting up the integral package (SHARK)            ... done
Starting the Coulomb interaction                   ... done (   0.0 sec)
Reading the grid                                   ... done
Mapping shells                                     ... done
Starting the XC term evaluation                    ... done (   0.0 sec)
  promolecular density results
     # of electrons  =     29.000002311
     EX              =    -65.435521160
     EC              =     -1.335840562
     EX+EC           =    -66.771361722
Transforming the Hamiltonian                       ... done (   0.0 sec)
Diagonalizing the Hamiltonian                      ... done (   0.0 sec)
Back transforming the eigenvectors                 ... done (   0.0 sec)
Now organizing SCF variables                       ... done
                      ------------------
                      INITIAL GUESS DONE (   0.0 sec)
                      ------------------
-------------------
DFT GRID GENERATION
-------------------

General Integration Accuracy     IntAcc      ... 4.388
Radial Grid Type                 RadialGrid  ... OptM3 with GC (2021)
Angular Grid (max. ang.)         AngularGrid ... 4 (Lebedev-302)
Angular grid pruning method      GridPruning ... 4 (adaptive)
Weight generation scheme         WeightScheme... Becke
Basis function cutoff            BFCut       ... 1.0000e-11
Integration weight cutoff        WCut        ... 1.0000e-14
Angular grids for H and He will be reduced by one unit
Partially contracted basis set               ... off
Rotationally invariant grid construction     ... off

Total number of grid points                  ...    11336
Total number of batches                      ...      178
Average number of points per batch           ...       63
Average number of grid points per atom       ...    11336
Time for grid setup =    0.161 sec

--------------------
COSX GRID GENERATION
--------------------

GRIDX 1
-------
General Integration Accuracy     IntAcc      ... 3.816
Radial Grid Type                 RadialGrid  ... OptM3 with GC (2021)
Angular Grid (max. ang.)         AngularGrid ... 1 (Lebedev-50)
Angular grid pruning method      GridPruning ... 4 (adaptive)
Weight generation scheme         WeightScheme... Becke
Basis function cutoff            BFCut       ... 1.0000e-11
Integration weight cutoff        WCut        ... 1.0000e-14
Angular grids for H and He will be reduced by one unit
Partially contracted basis set               ... on
Rotationally invariant grid construction     ... off

Total number of grid points                  ...     1244
Total number of batches                      ...       20
Average number of points per batch           ...       62
Average number of grid points per atom       ...     1244
UseSFitting                                  ... on

GRIDX 2
-------
General Integration Accuracy     IntAcc      ... 4.020
Radial Grid Type                 RadialGrid  ... OptM3 with GC (2021)
Angular Grid (max. ang.)         AngularGrid ... 2 (Lebedev-110)
Angular grid pruning method      GridPruning ... 4 (adaptive)
Weight generation scheme         WeightScheme... Becke
Basis function cutoff            BFCut       ... 1.0000e-11
Integration weight cutoff        WCut        ... 1.0000e-14
Angular grids for H and He will be reduced by one unit
Partially contracted basis set               ... on
Rotationally invariant grid construction     ... off

Total number of grid points                  ...     2712
Total number of batches                      ...       43
Average number of points per batch           ...       63
Average number of grid points per atom       ...     2712
UseSFitting                                  ... on

GRIDX 3
-------
General Integration Accuracy     IntAcc      ... 4.338
Radial Grid Type                 RadialGrid  ... OptM3 with GC (2021)
Angular Grid (max. ang.)         AngularGrid ... 3 (Lebedev-194)
Angular grid pruning method      GridPruning ... 4 (adaptive)
Weight generation scheme         WeightScheme... Becke
Basis function cutoff            BFCut       ... 1.0000e-11
Integration weight cutoff        WCut        ... 1.0000e-14
Angular grids for H and He will be reduced by one unit
Partially contracted basis set               ... on
Rotationally invariant grid construction     ... off

Total number of grid points                  ...     6274
Total number of batches                      ...       99
Average number of points per batch           ...       63
Average number of grid points per atom       ...     6274
UseSFitting                                  ... on

Time for X-Grid setup             =    0.067 sec


--------------------
CPCM SOLVATION MODEL
--------------------
CPCM parameters:
  Epsilon                                         ...      80.4000
  Refrac                                          ...       1.3300
  Rsolv                                           ...       1.3000
  Surface type                                    ... GAUSSIAN VDW
  Epsilon function type                           ...         CPCM
Radii:
 Radius for Cu used is    3.1747 Bohr (=   1.6800 Ang.)
Calculating surface                               ...        done! (  0.0s)
GEPOL surface points                              ...          110
GEPOL Volume                                      ...     134.0334
GEPOL Surface-area                                ...     126.6561
Calculating surface distance matrix               ...        done! (  0.0s)
Performing Cholesky decomposition & store         ...        done! (  0.0s)
Overall time for CPCM initialization              ...                 0.0s
--------------
SCF ITERATIONS
--------------
ITER       Energy         Delta-E        Max-DP      RMS-DP      [F,P]     Damp
               ***  Starting incremental Fock matrix formation  ***
  0  -1639.9501844525   0.000000000000 0.01029099  0.00067908  0.3227596 0.8500
  1  -1639.9744188889  -0.024234436393 0.00817598  0.00055532  0.2323935 0.8500
                               ***Turning on DIIS***
  2  -1639.9902219886  -0.015803099765 0.00565686  0.00040429  0.1640068 0.8500
  3  -1640.0012333971  -0.011011408443 0.00367514  0.00026443  0.1165660 0.8500
  4  -1640.0095882614  -0.008354864359 0.00295801  0.00021506  0.0931313 0.8500
  5  -1640.0162699352  -0.006681673764 0.00252578  0.00018337  0.0780309 0.8500
  6  -1640.0218254486  -0.005555513418 0.00219356  0.00015760  0.0663456 0.8500
  7  -1640.0265086385  -0.004683189863 0.00192878  0.00013560  0.0565408 0.8500
  8  -1640.0304875824  -0.003978943958 0.00166496  0.00011607  0.0476737 0.8500
  9  -1640.0338530046  -0.003365422134 0.00141167  0.00009871  0.0399630 0.8500
 10  -1640.0366926775  -0.002839672883 0.00119044  0.00008371  0.0335505 0.8500
 11  -1640.0390916485  -0.002398971024 0.00669887  0.00047344  0.0282506 0.0000
 12  -1640.0524931971  -0.013401548632 0.00062591  0.00002323  0.0013938 0.0000
 13  -1640.0524990930  -0.000005895880 0.00037457  0.00001351  0.0008718 0.0000
               *** Restarting incremental Fock matrix formation ***
                                   *** Resetting DIIS ***
 14  -1640.0514780477   0.001021045333 0.00047272  0.00002732  0.0532205 0.8500
 15  -1640.0516884773  -0.000210429593 0.00039224  0.00002338  0.0443921 0.8500
 16  -1640.0518632079  -0.000174730685 0.00032101  0.00001960  0.0371275 0.8500
 17  -1640.0520085974  -0.000145389489 0.00027433  0.00001688  0.0313717 0.8500
 18  -1640.0521305278  -0.000121930419 0.00155790  0.00009819  0.0266198 0.0000
 19  -1640.0528061715  -0.000675643671 0.00047263  0.00001561  0.0009086 0.0000

 WARNING: the maximum gradient error descreased on average only by a factor   1.1
          during the last 20 iterations

                      *** Initiating the TRAH-SCF procedure ***


TRAH GRIDX
----------

General Integration Accuracy     IntAcc      ... 3.067
Radial Grid Type                 RadialGrid  ... OptM3 with GC (2021)
Angular Grid (max. ang.)         AngularGrid ... 1 (Lebedev-50)
Angular grid pruning method      GridPruning ... 4 (adaptive)
Weight generation scheme         WeightScheme... Becke
Basis function cutoff            BFCut       ... 1.0000e-11
Integration weight cutoff        WCut        ... 1.0000e-14
Angular grids for H and He will be reduced by one unit
Partially contracted basis set               ... on
Rotationally invariant grid construction     ... off

Total number of grid points                  ...      838
Total number of batches                      ...       14
Average number of points per batch           ...       59
Average number of grid points per atom       ...      838


TRAH GRID
---------

General Integration Accuracy     IntAcc      ... 3.467
Radial Grid Type                 RadialGrid  ... OptM3 with GC (2021)
Angular Grid (max. ang.)         AngularGrid ... 1 (Lebedev-50)
Angular grid pruning method      GridPruning ... 4 (adaptive)
Weight generation scheme         WeightScheme... Becke
Basis function cutoff            BFCut       ... 1.0000e-11
Integration weight cutoff        WCut        ... 1.0000e-14
Angular grids for H and He will be reduced by one unit
Partially contracted basis set               ... off
Rotationally invariant grid construction     ... off

Total number of grid points                  ...     4348
Total number of batches                      ...       68
Average number of points per batch           ...       63
Average number of grid points per atom       ...     4348

 --------------------------------------------------------------------------------------------
   Iter.        energy            ||Error||_2        Shift      TRadius  Mac/Mic        Rej.
 --------------------------------------------------------------------------------------------
    0      -1640.052808972106     1.068036e-03                     0.400 (TRAH MAcro)   No
    0     dE    -2.850606e-06     6.915794e-03    -2.8506e-06      0.003 (TRAH MIcro)
    0     dE    -6.702969e-05     4.608701e-03    -6.6752e-05      0.064 (TRAH MIcro)
    0     dE    -7.000344e-05     9.701850e-04    -6.9687e-05      0.067 (TRAH MIcro)
    0     dE    -7.014062e-05     4.298794e-04    -6.9822e-05      0.068 (TRAH MIcro)
    0     dE    -7.014816e-05     3.813973e-04    -6.9829e-05      0.068 (TRAH MIcro)
    0     dE    -7.016020e-05     3.814482e-04    -6.9841e-05      0.068 (TRAH MIcro)
    0     dE    -7.021928e-05     3.437136e-04    -6.9899e-05      0.068 (TRAH MIcro)
    0     dE    -7.024244e-05     8.231987e-05    -6.9922e-05      0.068 (TRAH MIcro)
    1      -1640.052937574313     2.242543e-03                     0.480 (TRAH MAcro)   No
    1     dE    -7.816008e-07     3.119144e-03    -7.8160e-07      0.000 (TRAH MIcro)
    1     dE    -7.422278e-06     6.702814e-03    -7.4220e-06      0.007 (TRAH MIcro)
    1     dE    -3.307486e-05     4.703099e-03    -3.3021e-05      0.040 (TRAH MIcro)
    1     dE    -3.559452e-05     2.326029e-03    -3.5527e-05      0.044 (TRAH MIcro)
    1     dE    -3.646550e-05     3.738724e-04    -3.6392e-05      0.045 (TRAH MIcro)
    1     dE    -3.649795e-05     1.278909e-04    -3.6424e-05      0.045 (TRAH MIcro)
    2      -1640.052993931633     1.367290e-03                     0.576 (TRAH MAcro)   No
    2     dE    -2.581538e-07     4.983884e-03    -2.5816e-07      0.000 (TRAH MIcro)
    2     dE    -1.674118e-06     5.407206e-03    -1.6741e-06      0.002 (TRAH MIcro)
    2     dE    -7.889041e-06     5.686321e-03    -7.8865e-06      0.018 (TRAH MIcro)
    2     dE    -9.443978e-06     3.863266e-03    -9.4394e-06      0.022 (TRAH MIcro)
    2     dE    -1.000095e-05     4.361828e-04    -9.9954e-06      0.024 (TRAH MIcro)
    2     dE    -1.001295e-05     1.760762e-04    -1.0007e-05      0.024 (TRAH MIcro)
    2     dE    -1.001493e-05     1.585967e-04    -1.0009e-05      0.024 (TRAH MIcro)
    2     dE    -1.002302e-05     1.844931e-04    -1.0017e-05      0.024 (TRAH MIcro)
    2     dE    -1.002622e-05     3.263825e-05    -1.0021e-05      0.024 (TRAH MIcro)
    3      -1640.053007969681     6.586785e-04                           (NR   MAcro)
    3     dE    -2.590806e-07     3.448414e-04                           (NR   MIcro)
    3     dE    -7.506311e-07     1.301853e-03                           (NR   MIcro)
    3     dE    -1.365737e-06     8.579325e-04                           (NR   MIcro)
    3     dE    -1.613794e-06     1.679184e-04                           (NR   MIcro)
    3     dE    -1.620873e-06     5.290384e-05                           (NR   MIcro)
    3     dE    -1.621935e-06     2.023935e-05                           (NR   MIcro)
    3     dE    -1.622865e-06     4.975489e-05                           (NR   MIcro)
    3     dE    -1.627175e-06     4.191538e-05                           (NR   MIcro)
    3     dE    -1.627552e-06     5.237469e-06                           (NR   MIcro)
    3     dE    -1.627561e-06     2.127584e-06                           (NR   MIcro)
    4      -1640.053010140373     2.539156e-04                           (NR   MAcro)
    4     dE    -3.302189e-08     1.021929e-04                           (NR   MIcro)
    4     dE    -8.455527e-08     4.108899e-04                           (NR   MIcro)
    4     dE    -1.469043e-07     3.160482e-04                           (NR   MIcro)
    4     dE    -1.830331e-07     4.703600e-05                           (NR   MIcro)
    4     dE    -1.838339e-07     1.318593e-05                           (NR   MIcro)
    4     dE    -1.839472e-07     1.064150e-05                           (NR   MIcro)
    4     dE    -1.842783e-07     3.370574e-05                           (NR   MIcro)
    4     dE    -1.849010e-07     1.696932e-05                           (NR   MIcro)
    4     dE    -1.849647e-07     2.277546e-06                           (NR   MIcro)
    4     dE    -1.849669e-07     1.184541e-06                           (NR   MIcro)
    4     dE    -1.849736e-07     3.977313e-06                           (NR   MIcro)
    4     dE    -1.849957e-07     5.331214e-06                           (NR   MIcro)
    4     dE    -1.850024e-07     1.050623e-06                           (NR   MIcro)
    4     dE    -1.850027e-07     2.305986e-07                           (NR   MIcro)
    5      -1640.053010382455     8.369451e-05                           (NR   MAcro)
    5     dE    -3.360358e-09     3.039832e-05                           (NR   MIcro)
    5     dE    -8.035024e-09     1.228624e-04                           (NR   MIcro)
    5     dE    -1.370703e-08     1.043732e-04                           (NR   MIcro)
    5     dE    -1.764280e-08     1.630217e-05                           (NR   MIcro)
    5     dE    -1.773835e-08     4.750161e-06                           (NR   MIcro)
    5     dE    -1.775991e-08     5.054816e-06                           (NR   MIcro)
    5     dE    -1.787049e-08     1.354403e-05                           (NR   MIcro)
    5     dE    -1.793662e-08     2.705780e-06                           (NR   MIcro)
    5     dE    -1.793816e-08     6.263273e-07                           (NR   MIcro)
    6      -1640.053010406000     2.621924e-05                           (NR   MAcro)
    6     dE    -3.254301e-10     9.976380e-06                           (NR   MIcro)
    6     dE    -8.085592e-10     3.943858e-05                           (NR   MIcro)
    6     dE    -1.399978e-09     3.640235e-05                           (NR   MIcro)
    6     dE    -1.864551e-09     6.824138e-06                           (NR   MIcro)
    6     dE    -1.879296e-09     2.513456e-06                           (NR   MIcro)
    6     dE    -1.885480e-09     3.271970e-06                           (NR   MIcro)
    6     dE    -1.905172e-09     6.896443e-06                           (NR   MIcro)
    6     dE    -1.933377e-09     2.417499e-06                           (NR   MIcro)
    6     dE    -1.934712e-09     2.872754e-07                           (NR   MIcro)
    7      -1640.053010408767     9.646219e-06                           (NR   MAcro)

               *****************************************************
               *                     SUCCESS                       *
               *           SCF CONVERGED AFTER  93 CYCLES          *
               *****************************************************

Old exchange energy                            =    -35.222891780 Eh
New exchange energy                            =    -35.222919912 Eh
Exchange energy change after final integration =     -0.000028132 Eh
Total energy after final integration           =  -1640.053038540 Eh
Final COS-X integration done in                =     0.073 sec

----------------
TOTAL SCF ENERGY
----------------

Total Energy       :        -1640.05303854 Eh          -44628.11203 eV

Components:
Nuclear Repulsion  :            0.00000000 Eh               0.00000 eV
Electronic Energy  :        -1640.05303854 Eh          -44628.11203 eV
One Electron Energy:        -2261.65424073 Eh          -61542.74066 eV
Two Electron Energy:          621.60120219 Eh           16914.62863 eV
Max COSX asymmetry :            0.00000019 Eh               0.00001 eV
CPCM Dielectric    :           -0.62381490 Eh             -16.97487 eV

Virial components:
Potential Energy   :        -3277.56458501 Eh          -89187.06654 eV
Kinetic Energy     :         1637.51154647 Eh           44558.95451 eV
Virial Ratio       :            2.00155205


DFT components:
N(Alpha)           :       14.000000008258 electrons
N(Beta)            :       13.000000008258 electrons
N(Total)           :       27.000000016516 electrons
E(XC)              :      -31.392946534707 Eh       
DFET-embed. en.    :        0.000000000000 Eh       
CPCM Solvation Model Properties:
Surface-charge          :           -2.00241606
Charge-correction       :            0.00075268 Eh               0.02048 eV
Free-energy (cav+disp)  :  This term is not implemented in the current solvation scheme

---------------
SCF CONVERGENCE
---------------

  Last Energy change         ...   -2.7665e-09  Tolerance :   1.0000e-08
  Last Orbital Gradient      ...    9.6462e-06  Tolerance :   1.0000e-05
  Last Orbital Rotation      ...    3.7114e-04

             **** THE GBW FILE WAS UPDATED (cu2+.gbw) ****
             **** DENSITY cu2+.scfp WAS UPDATED ****
             **** ENERGY FILE WAS UPDATED (cu2+.en.tmp) ****
----------------------
UHF SPIN CONTAMINATION
----------------------

Warning: in a DFT calculation there is little theoretical justification to 
         calculate <S**2> as in Hartree-Fock theory. We will do it anyways
         but you should keep in mind that the values have only limited relevance

Expectation value of <S**2>     :     0.750790
Ideal value S*(S+1) for S=0.5   :     0.750000
Deviation                       :     0.000790

             **** THE GBW FILE WAS UPDATED (cu2+.gbw) ****
             **** DENSITY cu2+.scfp WAS UPDATED ****
----------------
ORBITAL ENERGIES
----------------
                 SPIN UP ORBITALS
  NO   OCC          E(Eh)            E(eV) 
   0   1.0000    -325.350483     -8853.2367 
   1   1.0000     -39.773468     -1082.2911 
   2   1.0000     -34.980918      -951.8792 
   3   1.0000     -34.979916      -951.8519 
   4   1.0000     -34.965554      -951.4611 
   5   1.0000      -4.847000      -131.8936 
   6   1.0000      -3.355368       -91.3042 
   7   1.0000      -3.350275       -91.1656 
   8   1.0000      -3.277093       -89.1742 
   9   1.0000      -0.764941       -20.8151 
  10   1.0000      -0.728592       -19.8260 
  11   1.0000      -0.695405       -18.9229 
  12   1.0000      -0.693133       -18.8611 
  13   1.0000      -0.682035       -18.5591 
  14   0.0000      -0.100742        -2.7413 
  15   0.0000       0.109402         2.9770 
  16   0.0000       0.122988         3.3467 
  17   0.0000       0.123102         3.3498 
  18   0.0000       0.125940         3.4270 
  19   0.0000       0.218227         5.9383 
  20   0.0000       0.218627         5.9491 
  21   0.0000       0.218641         5.9495 
  22   0.0000       0.218791         5.9536 
  23   0.0000       0.219139         5.9631 
  24   0.0000       0.863738        23.5035 
  25   0.0000       0.865346        23.5473 
  26   0.0000       0.869399        23.6576 
  27   0.0000       0.869634        23.6639 
  28   0.0000       0.872408        23.7394 
  29   0.0000       1.958225        53.2860 
  30   0.0000       1.961063        53.3632 
  31   0.0000       2.001209        54.4557 
  32   0.0000       2.815185        76.6051 
  33   0.0000       3.522897        95.8629 
  34   0.0000       3.546650        96.5093 
  35   0.0000       3.567299        97.0711 
  36   0.0000       3.568719        97.1098 
  37   0.0000       3.576433        97.3197 
  38   0.0000       5.558494       151.2543 
  39   0.0000       5.559277       151.2756 
  40   0.0000       5.591895       152.1632 
  41   0.0000       5.613413       152.7487 
  42   0.0000       5.624307       153.0452 
  43   0.0000       5.626134       153.0949 
  44   0.0000       5.630709       153.2194 

                 SPIN DOWN ORBITALS
  NO   OCC          E(Eh)            E(eV) 
   0   1.0000    -325.350386     -8853.2341 
   1   1.0000     -39.736254     -1081.2784 
   2   1.0000     -34.958156      -951.2598 
   3   1.0000     -34.938860      -950.7347 
   4   1.0000     -34.937638      -950.7015 
   5   1.0000      -4.798344      -130.5696 
   6   1.0000      -3.262223       -88.7696 
   7   1.0000      -3.261585       -88.7522 
   8   1.0000      -3.255739       -88.5932 
   9   1.0000      -0.693329       -18.8665 
  10   1.0000      -0.659138       -17.9361 
  11   1.0000      -0.656528       -17.8650 
  12   1.0000      -0.647265       -17.6130 
  13   0.0000      -0.181476        -4.9382 
  14   0.0000      -0.107595        -2.9278 
  15   0.0000       0.106813         2.9065 
  16   0.0000       0.109726         2.9858 
  17   0.0000       0.112183         3.0527 
  18   0.0000       0.126581         3.4444 
  19   0.0000       0.218329         5.9410 
  20   0.0000       0.218917         5.9570 
  21   0.0000       0.219059         5.9609 
  22   0.0000       0.219069         5.9612 
  23   0.0000       0.222358         6.0507 
  24   0.0000       0.858201        23.3528 
  25   0.0000       0.865691        23.5566 
  26   0.0000       0.868116        23.6226 
  27   0.0000       0.869154        23.6509 
  28   0.0000       0.873964        23.7818 
  29   0.0000       1.988108        54.0992 
  30   0.0000       1.989312        54.1319 
  31   0.0000       2.010207        54.7005 
  32   0.0000       2.843171        77.3666 
  33   0.0000       3.557822        96.8133 
  34   0.0000       3.585324        97.5616 
  35   0.0000       3.587300        97.6154 
  36   0.0000       3.594573        97.8133 
  37   0.0000       3.636400        98.9515 
  38   0.0000       5.631259       153.2344 
  39   0.0000       5.636817       153.3856 
  40   0.0000       5.637575       153.4062 
  41   0.0000       5.650561       153.7596 
  42   0.0000       5.655890       153.9046 
  43   0.0000       5.658247       153.9687 
  44   0.0000       5.659709       154.0085 
------------------
MOLECULAR ORBITALS
------------------
                      0         1         2         3         4         5   
                 -325.35048 -39.77347 -34.98092 -34.97992 -34.96555  -4.84700
                   1.00000   1.00000   1.00000   1.00000   1.00000   1.00000
                  --------  --------  --------  --------  --------  --------
  0Cu  1s        -0.997576 -0.319316 -0.000000  0.000000  0.000000 -0.120318
  0Cu  2s        -0.007527  1.037025  0.000000 -0.000000 -0.000000  0.464572
  0Cu  3s         0.002733  0.042536  0.000000 -0.000000 -0.000000 -0.649497
  0Cu  4s        -0.001670 -0.014191 -0.000000  0.000000  0.000000 -0.464015
  0Cu  5s         0.000420  0.003117  0.000000 -0.000000 -0.000000 -0.008474
  0Cu  6s        -0.000204 -0.001501 -0.000000  0.000000  0.000000  0.003065
  0Cu  1pz        0.000000 -0.000000 -0.000003 -0.000033 -0.991134 -0.000000
  0Cu  1px        0.000000 -0.000000  0.472013  0.871264 -0.000031 -0.000000
  0Cu  1py       -0.000000  0.000000 -0.871250  0.472020 -0.000013  0.000000
  0Cu  2pz        0.000000  0.000000 -0.000000 -0.000001 -0.023649  0.000000
  0Cu  2px        0.000000  0.000000  0.011578  0.021335 -0.000001  0.000000
  0Cu  2py       -0.000000 -0.000000 -0.021372  0.011558 -0.000000 -0.000000
  0Cu  3pz       -0.000000 -0.000000  0.000000  0.000000  0.004860  0.000000
  0Cu  3px       -0.000000 -0.000000 -0.002442 -0.004492  0.000000  0.000000
  0Cu  3py        0.000000  0.000000  0.004507 -0.002433  0.000000 -0.000000
  0Cu  1dz2       0.000000 -0.000521 -0.000000  0.000000 -0.000000  0.010564
  0Cu  1dxz       0.000000 -0.000000  0.000000  0.000000 -0.000000  0.000001
  0Cu  1dyz       0.000000 -0.000000 -0.000000  0.000000  0.000000  0.000000
  0Cu  1dx2y2     0.000000 -0.000016 -0.000000  0.000000 -0.000000  0.000343
  0Cu  1dxy       0.000000 -0.000025 -0.000000 -0.000000 -0.000000  0.000525
  0Cu  2dz2      -0.000000  0.000199  0.000000 -0.000000  0.000000  0.004163
  0Cu  2dxz      -0.000000  0.000000 -0.000000 -0.000000  0.000000  0.000000
  0Cu  2dyz      -0.000000  0.000000  0.000000 -0.000000 -0.000000  0.000000
  0Cu  2dx2y2    -0.000000  0.000006  0.000000 -0.000000  0.000000  0.000139
  0Cu  2dxy      -0.000000  0.000010  0.000000  0.000000  0.000000  0.000213
  0Cu  3dz2       0.000000 -0.000083 -0.000000  0.000000 -0.000000 -0.000721
  0Cu  3dxz       0.000000 -0.000000  0.000000  0.000000 -0.000000 -0.000000
  0Cu  3dyz       0.000000 -0.000000 -0.000000  0.000000  0.000000 -0.000000
  0Cu  3dx2y2     0.000000 -0.000003 -0.000000  0.000000 -0.000000 -0.000025
  0Cu  3dxy       0.000000 -0.000004 -0.000000 -0.000000 -0.000000 -0.000038
  0Cu  4pz        0.000000  0.000000 -0.000000 -0.000000 -0.001081  0.000000
  0Cu  4px        0.000000  0.000000  0.000546  0.001003 -0.000000  0.000000
  0Cu  4py       -0.000000 -0.000000 -0.001007  0.000544 -0.000000 -0.000000
  0Cu  4dz2      -0.000000  0.000028  0.000000 -0.000000  0.000000  0.000249
  0Cu  4dxz      -0.000000  0.000000 -0.000000 -0.000000  0.000000  0.000000
  0Cu  4dyz      -0.000000  0.000000  0.000000 -0.000000 -0.000000  0.000000
  0Cu  4dx2y2    -0.000000  0.000001  0.000000 -0.000000  0.000000  0.000008
  0Cu  4dxy      -0.000000  0.000001  0.000000  0.000000  0.000000  0.000013
  0Cu  1f0       -0.000000  0.000000  0.000000  0.000000  0.000087 -0.000000
  0Cu  1f+1       0.000000  0.000000 -0.000039 -0.000068  0.000000 -0.000000
  0Cu  1f-1      -0.000000 -0.000000  0.000072 -0.000037  0.000000  0.000000
  0Cu  1f+2       0.000000  0.000000 -0.000000 -0.000000  0.000002 -0.000000
  0Cu  1f-2      -0.000000  0.000000  0.000000 -0.000000  0.000002 -0.000000
  0Cu  1f+3      -0.000000  0.000000  0.000038 -0.000002 -0.000000 -0.000000
  0Cu  1f-3       0.000000  0.000000 -0.000003 -0.000028 -0.000000 -0.000000
                      6         7         8         9        10        11   
                  -3.35537  -3.35028  -3.27709  -0.76494  -0.72859  -0.69541
                   1.00000   1.00000   1.00000   1.00000   1.00000   1.00000
                  --------  --------  --------  --------  --------  --------
  0Cu  1s         0.000000 -0.000000 -0.000000 -0.000127  0.000000 -0.000000
  0Cu  2s        -0.000000  0.000000  0.000000  0.000460  0.000000  0.000000
  0Cu  3s         0.000000 -0.000000 -0.000000 -0.000814  0.000000 -0.000000
  0Cu  4s         0.000000 -0.000000 -0.000000 -0.000283 -0.000000  0.000000
  0Cu  5s        -0.000000  0.000000  0.000000 -0.000352 -0.000001  0.000000
  0Cu  6s         0.000000 -0.000000 -0.000000  0.000086  0.000000 -0.000000
  0Cu  1pz        0.000001  0.000013  0.384413  0.000000  0.000000 -0.000000
  0Cu  1px       -0.183620 -0.338953  0.000012 -0.000000  0.000000 -0.000000
  0Cu  1py        0.339012 -0.183587  0.000005  0.000000  0.000000  0.000000
  0Cu  2pz       -0.000003 -0.000030 -0.886869 -0.000000 -0.000000  0.000000
  0Cu  2px        0.423578  0.781915 -0.000028  0.000000 -0.000000  0.000000
  0Cu  2py       -0.782042  0.423509 -0.000011 -0.000000 -0.000000 -0.000000
  0Cu  3pz       -0.000001 -0.000008 -0.250706  0.000000  0.000000  0.000000
  0Cu  3px        0.118186  0.218331 -0.000008  0.000000 -0.000000  0.000000
  0Cu  3py       -0.218204  0.118255 -0.000003 -0.000000 -0.000000 -0.000000
  0Cu  1dz2       0.000000  0.000000  0.000000 -0.019620 -0.000003 -0.000004
  0Cu  1dxz      -0.000000 -0.000000  0.000000  0.000018  0.000013  0.326117
  0Cu  1dyz       0.000000 -0.000000 -0.000000  0.000013 -0.000019 -0.602100
  0Cu  1dx2y2     0.000000 -0.000000  0.000000 -0.377359 -0.576518  0.000018
  0Cu  1dxy       0.000000  0.000000  0.000000 -0.578634  0.375979 -0.000015
  0Cu  2dz2       0.000000 -0.000000  0.000000 -0.011239 -0.000001 -0.000002
  0Cu  2dxz      -0.000000 -0.000000  0.000000  0.000010  0.000008  0.187541
  0Cu  2dyz       0.000000 -0.000000 -0.000000  0.000007 -0.000011 -0.346252
  0Cu  2dx2y2     0.000000 -0.000000  0.000000 -0.215711 -0.330241  0.000010
  0Cu  2dxy       0.000000  0.000000  0.000000 -0.330766  0.215368 -0.000008
  0Cu  3dz2       0.000000 -0.000000  0.000000 -0.004191 -0.000001 -0.000001
  0Cu  3dxz      -0.000000 -0.000000  0.000000  0.000004  0.000003  0.078171
  0Cu  3dyz       0.000000 -0.000000 -0.000000  0.000003 -0.000004 -0.144325
  0Cu  3dx2y2     0.000000 -0.000000 -0.000000 -0.081644 -0.130959  0.000004
  0Cu  3dxy       0.000000  0.000000 -0.000000 -0.125192  0.085406 -0.000003
  0Cu  4pz       -0.000000 -0.000000 -0.003230  0.000000  0.000000 -0.000000
  0Cu  4px        0.000991  0.001902 -0.000000 -0.000000  0.000000 -0.000000
  0Cu  4py       -0.001830  0.001030 -0.000000  0.000000  0.000000  0.000000
  0Cu  4dz2      -0.000000 -0.000000 -0.000000  0.000218  0.000000  0.000000
  0Cu  4dxz       0.000000  0.000000 -0.000000 -0.000000 -0.000000 -0.003014
  0Cu  4dyz      -0.000000  0.000000  0.000000 -0.000000  0.000000  0.005565
  0Cu  4dx2y2    -0.000000  0.000000 -0.000000  0.004323  0.005730 -0.000000
  0Cu  4dxy      -0.000000 -0.000000 -0.000000  0.006628 -0.003737  0.000000
  0Cu  1f0        0.000000  0.000000  0.004758 -0.000000 -0.000000 -0.000000
  0Cu  1f+1      -0.002110 -0.003684  0.000000 -0.000000  0.000000  0.000000
  0Cu  1f-1       0.003895 -0.001995  0.000000  0.000000  0.000000 -0.000000
  0Cu  1f+2      -0.000000 -0.000000  0.000086 -0.000000 -0.000000 -0.000000
  0Cu  1f-2       0.000000 -0.000000  0.000132 -0.000000  0.000000 -0.000000
  0Cu  1f+3       0.002066 -0.000122 -0.000000  0.000000 -0.000000 -0.000000
  0Cu  1f-3      -0.000169 -0.001501 -0.000000 -0.000000 -0.000000  0.000000
                     12        13        14        15        16        17   
                  -0.69313  -0.68203  -0.10074   0.10940   0.12299   0.12310
                   1.00000   1.00000   0.00000   0.00000   0.00000   0.00000
                  --------  --------  --------  --------  --------  --------
  0Cu  1s         0.000000 -0.001446 -0.029456  0.020767 -0.000000 -0.000000
  0Cu  2s        -0.000000  0.005266  0.083901 -0.067040  0.000000  0.000000
  0Cu  3s         0.000000 -0.009165 -0.243257  0.158523 -0.000000 -0.000000
  0Cu  4s         0.000000 -0.003706 -0.174211  0.218828 -0.000000 -0.000000
  0Cu  5s        -0.000000 -0.002536  0.824602 -1.799919  0.000000  0.000000
  0Cu  6s         0.000000  0.000466  0.281143  1.827638 -0.000000 -0.000000
  0Cu  1pz       -0.000000  0.000000 -0.000000  0.000000  0.000003 -0.000000
  0Cu  1px        0.000000 -0.000000 -0.000000  0.000000 -0.080931  0.044026
  0Cu  1py        0.000000  0.000000  0.000000 -0.000000 -0.043952 -0.081069
  0Cu  2pz        0.000000 -0.000000  0.000000 -0.000000 -0.000009  0.000001
  0Cu  2px       -0.000000  0.000000  0.000000 -0.000000  0.231947 -0.126264
  0Cu  2py       -0.000000 -0.000000 -0.000000  0.000000  0.125965  0.232499
  0Cu  3pz       -0.000000 -0.000000 -0.000000 -0.000000 -0.000001  0.000000
  0Cu  3px       -0.000000  0.000000 -0.000000 -0.000000  0.026432 -0.013858
  0Cu  3py       -0.000000 -0.000000  0.000000  0.000000  0.014353  0.025517
  0Cu  1dz2       0.000040 -0.682906  0.003280 -0.003532 -0.000000 -0.000000
  0Cu  1dxz      -0.601880 -0.000037  0.000000 -0.000000 -0.000000  0.000000
  0Cu  1dyz      -0.325998 -0.000016  0.000000 -0.000000 -0.000000 -0.000000
  0Cu  1dx2y2    -0.000015  0.010599  0.000040 -0.000089 -0.000000 -0.000000
  0Cu  1dxy      -0.000018  0.016247  0.000063 -0.000137  0.000000 -0.000000
  0Cu  2dz2       0.000023 -0.393487 -0.004920  0.002892 -0.000000 -0.000000
  0Cu  2dxz      -0.346202 -0.000022 -0.000000  0.000000 -0.000000  0.000000
  0Cu  2dyz      -0.187514 -0.000009 -0.000000  0.000000 -0.000000 -0.000000
  0Cu  2dx2y2    -0.000008  0.006093 -0.000221  0.000139 -0.000000 -0.000000
  0Cu  2dxy      -0.000010  0.009340 -0.000339  0.000213  0.000000 -0.000000
  0Cu  3dz2       0.000010 -0.167127 -0.001213  0.003140 -0.000000  0.000000
  0Cu  3dxz      -0.144838 -0.000009 -0.000000  0.000000  0.000000 -0.000000
  0Cu  3dyz      -0.078449 -0.000004 -0.000000  0.000000  0.000000  0.000000
  0Cu  3dx2y2    -0.000004  0.002627  0.000088 -0.000047  0.000000  0.000000
  0Cu  3dxy      -0.000004  0.004027  0.000136 -0.000070 -0.000000  0.000000
  0Cu  4pz       -0.000000  0.000000 -0.000000  0.000000  0.000035 -0.000005
  0Cu  4px        0.000000 -0.000000 -0.000000  0.000000 -0.896523  0.486686
  0Cu  4py        0.000000  0.000000  0.000000 -0.000000 -0.486878 -0.896167
  0Cu  4dz2      -0.000000  0.006044  0.000793 -0.002384  0.000000  0.000000
  0Cu  4dxz       0.005529  0.000000  0.000000 -0.000000  0.000000 -0.000000
  0Cu  4dyz       0.002995  0.000000  0.000000 -0.000000  0.000000  0.000000
  0Cu  4dx2y2     0.000000 -0.000097  0.000109  0.000122  0.000000  0.000000
  0Cu  4dxy       0.000000 -0.000149  0.000167  0.000181 -0.000000  0.000000
  0Cu  1f0       -0.000000 -0.000000 -0.000000  0.000000  0.000000 -0.000000
  0Cu  1f+1      -0.000000 -0.000000  0.000000  0.000000 -0.000038  0.000016
  0Cu  1f-1      -0.000000  0.000000 -0.000000 -0.000000 -0.000021 -0.000029
  0Cu  1f+2      -0.000000  0.000000  0.000000 -0.000000  0.000000  0.000000
  0Cu  1f-2       0.000000  0.000000 -0.000000  0.000000  0.000000 -0.000000
  0Cu  1f+3       0.000000 -0.000000 -0.000000  0.000000  0.000012  0.000141
  0Cu  1f-3       0.000000  0.000000  0.000000 -0.000000  0.000141 -0.000012
                     18        19        20        21        22        23   
                   0.12594   0.21823   0.21863   0.21864   0.21879   0.21914
                   0.00000   0.00000   0.00000   0.00000   0.00000   0.00000
                  --------  --------  --------  --------  --------  --------
  0Cu  1s        -0.000000 -0.000000 -0.000000 -0.000000 -0.000002  0.000019
  0Cu  2s         0.000000  0.000000  0.000000  0.000000  0.000099  0.000462
  0Cu  3s        -0.000000 -0.000001 -0.000000 -0.000000  0.000161  0.001148
  0Cu  4s        -0.000000 -0.000001 -0.000000 -0.000000 -0.000451 -0.002505
  0Cu  5s         0.000000  0.000004  0.000000  0.000000 -0.000234 -0.000103
  0Cu  6s        -0.000000 -0.000003 -0.000000 -0.000000  0.000621  0.000575
  0Cu  1pz        0.090054 -0.000000  0.000000  0.000000  0.000000 -0.000000
  0Cu  1px        0.000003  0.000000  0.000000  0.000000  0.000000 -0.000000
  0Cu  1py        0.000001  0.000000 -0.000000  0.000000 -0.000000  0.000000
  0Cu  2pz       -0.255650  0.000000 -0.000000 -0.000000 -0.000000  0.000000
  0Cu  2px       -0.000008 -0.000000 -0.000000 -0.000000 -0.000000  0.000000
  0Cu  2py       -0.000003 -0.000000  0.000000 -0.000000  0.000000 -0.000000
  0Cu  3pz       -0.044054  0.000000 -0.000000  0.000000 -0.000000 -0.000000
  0Cu  3px       -0.000001 -0.000000 -0.000000 -0.000000 -0.000000  0.000000
  0Cu  3py       -0.000001 -0.000000  0.000000 -0.000000  0.000000 -0.000000
  0Cu  1dz2       0.000000 -0.000046  0.000001  0.000006 -0.023925 -0.093826
  0Cu  1dxz       0.000000  0.000002 -0.047267 -0.083807 -0.000004 -0.000005
  0Cu  1dyz      -0.000000 -0.000003  0.083665 -0.047341 -0.000003 -0.000001
  0Cu  1dx2y2     0.000000 -0.078723 -0.000002 -0.000002  0.048822 -0.012218
  0Cu  1dxy       0.000000  0.051924  0.000003 -0.000003  0.073949 -0.018586
  0Cu  2dz2       0.000000 -0.000010  0.000000  0.000001 -0.004730 -0.017841
  0Cu  2dxz       0.000000  0.000000 -0.008818 -0.015723 -0.000001 -0.000001
  0Cu  2dyz      -0.000000 -0.000000  0.015604 -0.008880 -0.000000 -0.000000
  0Cu  2dx2y2    -0.000000 -0.013848 -0.000000 -0.000000  0.006367 -0.001488
  0Cu  2dxy      -0.000000  0.009108  0.000000 -0.000001  0.009603 -0.002256
  0Cu  3dz2      -0.000000 -0.000053  0.000001  0.000007 -0.027876 -0.110263
  0Cu  3dxz      -0.000000  0.000002 -0.055082 -0.097661 -0.000005 -0.000005
  0Cu  3dyz       0.000000 -0.000003  0.097496 -0.055167 -0.000004 -0.000002
  0Cu  3dx2y2     0.000000 -0.089906 -0.000003 -0.000002  0.060488 -0.015277
  0Cu  3dxy       0.000000  0.059354  0.000003 -0.000003  0.091704 -0.023255
  0Cu  4pz        1.025571 -0.000000  0.000000 -0.000000  0.000000  0.000000
  0Cu  4px        0.000033  0.000000  0.000000  0.000000  0.000000 -0.000000
  0Cu  4py        0.000012  0.000000 -0.000000  0.000000 -0.000000  0.000000
  0Cu  4dz2      -0.000000  0.000490 -0.000009 -0.000061  0.258462  1.021516
  0Cu  4dxz      -0.000000 -0.000017  0.517932  0.916872  0.000042  0.000049
  0Cu  4dyz       0.000000  0.000032 -0.916811  0.517962  0.000033  0.000015
  0Cu  4dx2y2     0.000000  0.877450  0.000024  0.000021 -0.562821  0.142013
  0Cu  4dxy       0.000000 -0.578959 -0.000029  0.000033 -0.852823  0.216104
  0Cu  1f0        0.000139  0.000000 -0.000000  0.000000  0.000000  0.000000
  0Cu  1f+1       0.000000 -0.000000  0.000000  0.000000 -0.000000  0.000000
  0Cu  1f-1       0.000000 -0.000000 -0.000000  0.000000  0.000000 -0.000000
  0Cu  1f+2       0.000004  0.000000 -0.000000  0.000000 -0.000000  0.000000
  0Cu  1f-2       0.000006 -0.000000 -0.000000 -0.000000 -0.000000  0.000000
  0Cu  1f+3       0.000000  0.000000  0.000000 -0.000000  0.000000 -0.000000
  0Cu  1f-3      -0.000000  0.000000 -0.000000 -0.000000 -0.000000  0.000000
                     24        25        26        27        28        29   
                   0.86374   0.86535   0.86940   0.86963   0.87241   1.95822
                   0.00000   0.00000   0.00000   0.00000   0.00000   0.00000
                  --------  --------  --------  --------  --------  --------
  0Cu  1s         0.000000  0.000042  0.000000  0.000000  0.000382  0.000000
  0Cu  2s         0.000000  0.000069 -0.000000  0.000000  0.001908  0.000000
  0Cu  3s         0.000001  0.000702  0.000000  0.000000  0.008744  0.000000
  0Cu  4s        -0.000002 -0.000997  0.000000 -0.000000 -0.016886 -0.000000
  0Cu  5s         0.000001  0.000408 -0.000000  0.000000  0.015353  0.000000
  0Cu  6s        -0.000001 -0.000258 -0.000000 -0.000000 -0.009288 -0.000000
  0Cu  1pz        0.000000  0.000000  0.000000 -0.000000 -0.000000 -0.000001
  0Cu  1px        0.000000  0.000000  0.000000  0.000000  0.000000  0.148999
  0Cu  1py        0.000000 -0.000000 -0.000000  0.000000 -0.000000 -0.275034
  0Cu  2pz       -0.000000 -0.000000 -0.000000  0.000000  0.000000  0.000004
  0Cu  2px       -0.000000 -0.000000 -0.000000 -0.000000 -0.000000 -0.548397
  0Cu  2py       -0.000000  0.000000  0.000000 -0.000000  0.000000  1.012275
  0Cu  3pz        0.000000  0.000000  0.000000 -0.000000 -0.000000 -0.000005
  0Cu  3px        0.000000  0.000000  0.000000  0.000000  0.000000  0.734477
  0Cu  3py        0.000000 -0.000000 -0.000000  0.000000 -0.000000 -1.355755
  0Cu  1dz2       0.000006  0.001745 -0.000002 -0.000019 -0.318474 -0.000000
  0Cu  1dxz      -0.000006  0.000009  0.150999  0.279052 -0.000017  0.000000
  0Cu  1dyz       0.000009  0.000006 -0.278869  0.151098 -0.000007 -0.000000
  0Cu  1dx2y2     0.262722 -0.173166  0.000008  0.000007 -0.000877 -0.000000
  0Cu  1dxy      -0.171996 -0.264522 -0.000007  0.000008 -0.001351 -0.000000
  0Cu  2dz2       0.000006  0.001983 -0.000001 -0.000015 -0.258011  0.000000
  0Cu  2dxz      -0.000005  0.000007  0.121837  0.225407 -0.000014 -0.000000
  0Cu  2dyz       0.000007  0.000005 -0.225012  0.122051 -0.000006  0.000000
  0Cu  2dx2y2     0.209158 -0.130674  0.000007  0.000006 -0.000350  0.000000
  0Cu  2dxy      -0.136903 -0.199572 -0.000006  0.000007 -0.000542  0.000000
  0Cu  3dz2      -0.000026 -0.006933  0.000007  0.000075  1.281025 -0.000000
  0Cu  3dxz       0.000025 -0.000035 -0.610001 -1.126599  0.000069  0.000000
  0Cu  3dyz      -0.000035 -0.000025  1.126567 -0.610019  0.000030 -0.000000
  0Cu  3dx2y2    -1.071640  0.699001 -0.000033 -0.000028  0.003583 -0.000000
  0Cu  3dxy       0.701543  1.067729  0.000028 -0.000033  0.005519 -0.000000
  0Cu  4pz       -0.000000 -0.000000 -0.000000  0.000000  0.000000  0.000002
  0Cu  4px       -0.000000 -0.000000 -0.000000 -0.000000 -0.000000 -0.295550
  0Cu  4py       -0.000000  0.000000  0.000000 -0.000000  0.000000  0.545550
  0Cu  4dz2       0.000013  0.003305 -0.000003 -0.000036 -0.606394  0.000000
  0Cu  4dxz      -0.000012  0.000017  0.289267  0.534153 -0.000033 -0.000000
  0Cu  4dyz       0.000017  0.000012 -0.534227  0.289228 -0.000014  0.000000
  0Cu  4dx2y2     0.510453 -0.330974  0.000016  0.000013 -0.001684  0.000000
  0Cu  4dxy      -0.334159 -0.505556 -0.000013  0.000016 -0.002594  0.000000
  0Cu  1f0       -0.000000 -0.000000  0.000000 -0.000000  0.000000  0.000000
  0Cu  1f+1       0.000000  0.000000 -0.000000 -0.000000  0.000000 -0.000953
  0Cu  1f-1       0.000000 -0.000000  0.000000 -0.000000 -0.000000  0.001759
  0Cu  1f+2      -0.000000  0.000000  0.000000 -0.000000  0.000000 -0.000000
  0Cu  1f-2       0.000000  0.000000  0.000000  0.000000  0.000000  0.000000
  0Cu  1f+3      -0.000000 -0.000000 -0.000000  0.000000 -0.000000  0.001164
  0Cu  1f-3      -0.000000  0.000000  0.000000  0.000000  0.000000 -0.000095
                     30        31        32        33        34        35   
                   1.96106   2.00121   2.81519   3.52290   3.54665   3.56730
                   0.00000   0.00000   0.00000   0.00000   0.00000   0.00000
                  --------  --------  --------  --------  --------  --------
  0Cu  1s         0.000000 -0.000000 -0.157403 -0.000618  0.000000 -0.000000
  0Cu  2s         0.000000 -0.000000 -0.030045 -0.000050 -0.000000  0.000000
  0Cu  3s         0.000000 -0.000000 -2.195322 -0.008538  0.000001 -0.000000
  0Cu  4s        -0.000000  0.000000  2.576106  0.009643 -0.000001  0.000000
  0Cu  5s         0.000000 -0.000000 -1.036766 -0.003189  0.000000 -0.000000
  0Cu  6s        -0.000000  0.000000  0.508466  0.001556 -0.000000  0.000000
  0Cu  1pz        0.000010 -0.314077  0.000000  0.000000  0.000000  0.000000
  0Cu  1px       -0.275106 -0.000010  0.000000 -0.000000 -0.000000  0.000000
  0Cu  1py       -0.149038 -0.000004 -0.000000  0.000000 -0.000000 -0.000000
  0Cu  2pz       -0.000039  1.155242 -0.000000 -0.000000 -0.000000 -0.000000
  0Cu  2px        1.012501  0.000036 -0.000000  0.000000  0.000000 -0.000000
  0Cu  2py        0.548519  0.000015  0.000000 -0.000000  0.000000  0.000000
  0Cu  3pz        0.000052 -1.541157  0.000000  0.000000  0.000000  0.000000
  0Cu  3px       -1.355718 -0.000048  0.000000 -0.000000 -0.000000  0.000000
  0Cu  3py       -0.734457 -0.000020 -0.000000  0.000000 -0.000000 -0.000000
  0Cu  1dz2      -0.000000 -0.000000  0.035061 -0.023861  0.000002  0.000005
  0Cu  1dxz      -0.000000 -0.000000  0.000002  0.000023 -0.000017 -0.420938
  0Cu  1dyz      -0.000000  0.000000  0.000001  0.000016  0.000024  0.777101
  0Cu  1dx2y2    -0.000000  0.000000  0.001235 -0.480330  0.739078 -0.000023
  0Cu  1dxy       0.000000 -0.000000  0.001894 -0.736579 -0.481959  0.000019
  0Cu  2dz2       0.000000  0.000000 -0.056682  0.036665 -0.000003 -0.000008
  0Cu  2dxz       0.000000  0.000000 -0.000003 -0.000036  0.000026  0.642270
  0Cu  2dyz       0.000000 -0.000000 -0.000001 -0.000025 -0.000037 -1.185704
  0Cu  2dx2y2     0.000000 -0.000000 -0.002020  0.737874 -1.130360  0.000035
  0Cu  2dxy      -0.000000 -0.000000 -0.003098  1.131519  0.737118 -0.000029
  0Cu  3dz2      -0.000000 -0.000000  0.038020 -0.020777  0.000002  0.000004
  0Cu  3dxz      -0.000000 -0.000000  0.000002  0.000020 -0.000014 -0.358839
  0Cu  3dyz      -0.000000  0.000000  0.000001  0.000014  0.000021  0.662458
  0Cu  3dx2y2    -0.000000 -0.000000  0.001400 -0.417439  0.633358 -0.000020
  0Cu  3dxy       0.000000  0.000000  0.002147 -0.640135 -0.413017  0.000016
  0Cu  4pz       -0.000021  0.610861 -0.000000 -0.000000 -0.000000 -0.000000
  0Cu  4px        0.544965  0.000019 -0.000000  0.000000  0.000000 -0.000000
  0Cu  4py        0.295233  0.000008  0.000000 -0.000000  0.000000  0.000000
  0Cu  4dz2       0.000000  0.000000 -0.012519  0.006753 -0.000001 -0.000001
  0Cu  4dxz       0.000000  0.000000 -0.000001 -0.000007  0.000005  0.116593
  0Cu  4dyz       0.000000 -0.000000 -0.000000 -0.000005 -0.000007 -0.215245
  0Cu  4dx2y2     0.000000  0.000000 -0.000461  0.135619 -0.205951  0.000006
  0Cu  4dxy      -0.000000 -0.000000 -0.000707  0.207970  0.134302 -0.000005
  0Cu  1f0       -0.000000  0.001979 -0.000000 -0.000000 -0.000000  0.000000
  0Cu  1f+1       0.001643  0.000000 -0.000000 -0.000000 -0.000000 -0.000000
  0Cu  1f-1       0.000890  0.000000  0.000000  0.000000 -0.000000  0.000000
  0Cu  1f+2       0.000000  0.000036 -0.000000 -0.000000  0.000000  0.000000
  0Cu  1f-2       0.000000  0.000056  0.000000 -0.000000 -0.000000  0.000000
  0Cu  1f+3       0.000073 -0.000000 -0.000000  0.000000  0.000000  0.000000
  0Cu  1f-3       0.000885 -0.000000  0.000000 -0.000000  0.000000 -0.000000
                     36        37        38        39        40        41   
                   3.56872   3.57643   5.55849   5.55928   5.59189   5.61341
                   0.00000   0.00000   0.00000   0.00000   0.00000   0.00000
                  --------  --------  --------  --------  --------  --------
  0Cu  1s         0.000000  0.006693  0.000000 -0.000000 -0.000000  0.000000
  0Cu  2s         0.000000  0.000488 -0.000000 -0.000000  0.000000  0.000000
  0Cu  3s         0.000000  0.092411  0.000000 -0.000000 -0.000000  0.000000
  0Cu  4s        -0.000000 -0.104164  0.000000  0.000000  0.000000 -0.000000
  0Cu  5s         0.000000  0.034460 -0.000000 -0.000000 -0.000000  0.000000
  0Cu  6s        -0.000000 -0.016823  0.000000  0.000000  0.000000 -0.000000
  0Cu  1pz       -0.000000 -0.000000  0.000000 -0.000000 -0.000094  0.000000
  0Cu  1px        0.000000  0.000000 -0.000252  0.000317 -0.000000  0.000000
  0Cu  1py        0.000000 -0.000000  0.000466  0.000172 -0.000000  0.000000
  0Cu  2pz        0.000000  0.000000 -0.000000  0.000000  0.000163 -0.000000
  0Cu  2px       -0.000000 -0.000000  0.000336 -0.000390  0.000000 -0.000000
  0Cu  2py       -0.000000  0.000000 -0.000620 -0.000211  0.000000 -0.000000
  0Cu  3pz       -0.000000 -0.000000 -0.000000  0.000000  0.000354  0.000000
  0Cu  3px        0.000000  0.000000  0.001386 -0.001881  0.000000  0.000000
  0Cu  3py        0.000000 -0.000000 -0.002560 -0.001019  0.000000  0.000000
  0Cu  1dz2       0.000052  0.883329 -0.000000 -0.000000 -0.000000 -0.000000
  0Cu  1dxz      -0.777190  0.000048 -0.000000  0.000000  0.000000  0.000000
  0Cu  1dyz      -0.420986  0.000021  0.000000  0.000000 -0.000000  0.000000
  0Cu  1dx2y2    -0.000019 -0.013175 -0.000000  0.000000 -0.000000  0.000000
  0Cu  1dxy      -0.000023 -0.020200 -0.000000 -0.000000 -0.000000 -0.000000
  0Cu  2dz2      -0.000079 -1.346397 -0.000000 -0.000000 -0.000000  0.000000
  0Cu  2dxz       1.185642 -0.000074 -0.000000  0.000000  0.000000  0.000000
  0Cu  2dyz       0.642236 -0.000031  0.000000  0.000000 -0.000000  0.000000
  0Cu  2dx2y2     0.000029  0.020077 -0.000000  0.000000 -0.000000  0.000000
  0Cu  2dxy       0.000035  0.030781 -0.000000 -0.000000 -0.000000 -0.000000
  0Cu  3dz2       0.000044  0.751334 -0.000000 -0.000000 -0.000000 -0.000000
  0Cu  3dxz      -0.662267  0.000041 -0.000000  0.000000  0.000000  0.000000
  0Cu  3dyz      -0.358735  0.000017  0.000000  0.000000 -0.000000  0.000000
  0Cu  3dx2y2    -0.000016 -0.011187 -0.000000  0.000000 -0.000000  0.000000
  0Cu  3dxy      -0.000020 -0.017151 -0.000000 -0.000000 -0.000000 -0.000000
  0Cu  4pz        0.000000  0.000000  0.000000 -0.000000 -0.000115 -0.000000
  0Cu  4px       -0.000000 -0.000000 -0.000361  0.000462 -0.000000 -0.000000
  0Cu  4py       -0.000000  0.000000  0.000667  0.000250 -0.000000  0.000000
  0Cu  4dz2      -0.000014 -0.244062  0.000000  0.000000  0.000000  0.000000
  0Cu  4dxz       0.215174 -0.000013  0.000000 -0.000000 -0.000000 -0.000000
  0Cu  4dyz       0.116555 -0.000006 -0.000000 -0.000000  0.000000 -0.000000
  0Cu  4dx2y2     0.000005  0.003632  0.000000 -0.000000  0.000000 -0.000000
  0Cu  4dxy       0.000006  0.005569  0.000000  0.000000  0.000000  0.000000
  0Cu  1f0       -0.000000  0.000000 -0.000001  0.000009  0.049966  0.000003
  0Cu  1f+1      -0.000000  0.000000  0.071378 -0.091848 -0.000040  0.000030
  0Cu  1f-1      -0.000000 -0.000000 -0.131772 -0.049750 -0.000028 -0.000044
  0Cu  1f+2      -0.000000 -0.000000 -0.000030 -0.000022  0.545595 -0.837604
  0Cu  1f-2       0.000000 -0.000000  0.000014 -0.000041  0.836558  0.546277
  0Cu  1f+3      -0.000000  0.000000 -0.985426 -0.080890 -0.000008  0.000041
  0Cu  1f-3      -0.000000 -0.000000  0.080416 -0.991232 -0.000040 -0.000008
                     42        43        44   
                   5.62431   5.62613   5.63071
                   0.00000   0.00000   0.00000
                  --------  --------  --------
  0Cu  1s         0.000000  0.000000  0.000000
  0Cu  2s        -0.000000 -0.000000 -0.000000
  0Cu  3s         0.000000  0.000000  0.000000
  0Cu  4s        -0.000000 -0.000000 -0.000000
  0Cu  5s         0.000000  0.000000  0.000000
  0Cu  6s        -0.000000 -0.000000 -0.000000
  0Cu  1pz       -0.000000  0.000000  0.001130
  0Cu  1px        0.000446 -0.000814  0.000000
  0Cu  1py       -0.000823 -0.000441  0.000000
  0Cu  2pz        0.000000 -0.000000 -0.001965
  0Cu  2px       -0.000743  0.001362 -0.000000
  0Cu  2py        0.001371  0.000738 -0.000000
  0Cu  3pz        0.000000 -0.000000 -0.004236
  0Cu  3px       -0.001806  0.003270 -0.000000
  0Cu  3py        0.003333  0.001771 -0.000000
  0Cu  1dz2       0.000000  0.000000  0.000000
  0Cu  1dxz       0.000000 -0.000000 -0.000000
  0Cu  1dyz      -0.000000 -0.000000  0.000000
  0Cu  1dx2y2     0.000000  0.000000 -0.000000
  0Cu  1dxy       0.000000 -0.000000 -0.000000
  0Cu  2dz2       0.000000  0.000000  0.000000
  0Cu  2dxz       0.000000 -0.000000 -0.000000
  0Cu  2dyz      -0.000000 -0.000000  0.000000
  0Cu  2dx2y2     0.000000  0.000000 -0.000000
  0Cu  2dxy       0.000000 -0.000000 -0.000000
  0Cu  3dz2       0.000000  0.000000  0.000000
  0Cu  3dxz       0.000000 -0.000000 -0.000000
  0Cu  3dyz      -0.000000 -0.000000  0.000000
  0Cu  3dx2y2     0.000000  0.000000 -0.000000
  0Cu  3dxy       0.000000 -0.000000 -0.000000
  0Cu  4pz       -0.000000  0.000000  0.001332
  0Cu  4px        0.000555 -0.001006  0.000000
  0Cu  4py       -0.001025 -0.000545  0.000000
  0Cu  4dz2      -0.000000 -0.000000 -0.000000
  0Cu  4dxz      -0.000000  0.000000  0.000000
  0Cu  4dyz       0.000000  0.000000 -0.000000
  0Cu  4dx2y2    -0.000000 -0.000000  0.000000
  0Cu  4dxy      -0.000000  0.000000  0.000000
  0Cu  1f0        0.000008 -0.000082 -0.998738
  0Cu  1f+1      -0.470939  0.874450 -0.000078
  0Cu  1f-1       0.869330  0.473713 -0.000033
  0Cu  1f+2      -0.000046  0.000031  0.027294
  0Cu  1f-2       0.000036  0.000037  0.041854
  0Cu  1f+3      -0.149378 -0.008502 -0.000000
  0Cu  1f-3       0.012195 -0.104119 -0.000002

                      0         1         2         3         4         5   
                 -325.35039 -39.73625 -34.95816 -34.93886 -34.93764  -4.79834
                   1.00000   1.00000   1.00000   1.00000   1.00000   1.00000
                  --------  --------  --------  --------  --------  --------
  0Cu  1s         0.997577  0.319501  0.000000 -0.000000  0.000000 -0.120007
  0Cu  2s         0.007522 -1.037406 -0.000000  0.000000 -0.000000  0.463747
  0Cu  3s        -0.002734 -0.040768 -0.000000  0.000000 -0.000000 -0.648799
  0Cu  4s         0.001670  0.013224  0.000000 -0.000000  0.000000 -0.464858
  0Cu  5s        -0.000420 -0.002856 -0.000000  0.000000 -0.000000 -0.008369
  0Cu  6s         0.000204  0.001373  0.000000 -0.000000  0.000000  0.002997
  0Cu  1pz       -0.000000  0.000000 -0.991284  0.000033  0.000004 -0.000000
  0Cu  1px       -0.000000  0.000000 -0.000031 -0.872565 -0.471165 -0.000000
  0Cu  1py        0.000000 -0.000000 -0.000013 -0.471155  0.872584  0.000000
  0Cu  2pz       -0.000000 -0.000000 -0.023233  0.000001  0.000000  0.000000
  0Cu  2px        0.000000 -0.000000 -0.000001 -0.019598 -0.010556  0.000000
  0Cu  2py        0.000000  0.000000 -0.000000 -0.010582  0.019549 -0.000000
  0Cu  3pz        0.000000  0.000000  0.004689 -0.000000 -0.000000  0.000000
  0Cu  3px       -0.000000  0.000000  0.000000  0.003887  0.002091  0.000000
  0Cu  3py       -0.000000 -0.000000  0.000000  0.002099 -0.003873 -0.000000
  0Cu  1dz2       0.000002 -0.000389 -0.000000 -0.000000  0.000000  0.004322
  0Cu  1dxz       0.000000 -0.000000 -0.000000 -0.000000 -0.000000  0.000000
  0Cu  1dyz       0.000000 -0.000000  0.000000 -0.000000  0.000000  0.000000
  0Cu  1dx2y2     0.000000 -0.000010 -0.000000 -0.000000  0.000000  0.000162
  0Cu  1dxy       0.000000 -0.000015 -0.000000  0.000000  0.000000  0.000249
  0Cu  2dz2      -0.000001  0.000163  0.000000  0.000000 -0.000000  0.002095
  0Cu  2dxz      -0.000000  0.000000  0.000000  0.000000  0.000000  0.000000
  0Cu  2dyz      -0.000000  0.000000 -0.000000  0.000000 -0.000000  0.000000
  0Cu  2dx2y2    -0.000000  0.000004 -0.000000  0.000000 -0.000000  0.000053
  0Cu  2dxy      -0.000000  0.000007 -0.000000 -0.000000 -0.000000  0.000079
  0Cu  3dz2       0.000000 -0.000078 -0.000000 -0.000000  0.000000 -0.000860
  0Cu  3dxz       0.000000 -0.000000 -0.000000 -0.000000 -0.000000 -0.000000
  0Cu  3dyz       0.000000 -0.000000  0.000000 -0.000000  0.000000 -0.000000
  0Cu  3dx2y2     0.000000 -0.000002 -0.000000 -0.000000  0.000000 -0.000019
  0Cu  3dxy       0.000000 -0.000003 -0.000000  0.000000  0.000000 -0.000028
  0Cu  4pz       -0.000000 -0.000000 -0.001038  0.000000  0.000000  0.000000
[...]
      px      :    -0.000003
      py      :    -0.000006
      dz2     :     0.000906  d :     1.000018
      dxz     :     0.000000
      dyz     :     0.000000
      dx2y2   :     0.298145
      dxy     :     0.700967
      f0      :     0.000013  f :     0.000022
      f+1     :     0.000015
      f-1     :     0.000016
      f+2     :    -0.000000
      f-2     :    -0.000000
      f+3     :    -0.000009
      f-3     :    -0.000013


                      *****************************
                      * MAYER POPULATION ANALYSIS *
                      *****************************

  NA   - Mulliken gross atomic population
  ZA   - Total nuclear charge
  QA   - Mulliken gross atomic charge
  VA   - Mayer's total valence
  BVA  - Mayer's bonded valence
  FA   - Mayer's free valence

  ATOM       NA         ZA         QA         VA         BVA        FA
  0 Cu    27.0000    29.0000     2.0000     1.0016     0.0000     1.0016

  Mayer bond orders larger than 0.100000


-------
TIMINGS
-------

Total SCF time: 0 days 0 hours 0 min 16 sec 

Total time                  ....      16.744 sec
Sum of individual times     ....      16.301 sec  ( 97.4%)

Fock matrix formation       ....       8.541 sec  ( 51.0%)
  Split-RI-J                ....       0.701 sec  (  8.2% of F)
  Chain of spheres X        ....       4.923 sec  ( 57.6% of F)
  XC integration            ....       0.917 sec  ( 10.7% of F)
    Basis function eval.    ....       0.052 sec  (  5.7% of XC)
    Density eval.           ....       0.142 sec  ( 15.4% of XC)
    XC-Functional eval.     ....       0.045 sec  (  4.9% of XC)
    XC-Potential eval.      ....       0.123 sec  ( 13.5% of XC)
Diagonalization             ....       0.069 sec  (  0.4%)
Density matrix formation    ....       0.095 sec  (  0.6%)
Population analysis         ....       0.022 sec  (  0.1%)
Initial guess               ....       0.008 sec  (  0.0%)
Orbital Transformation      ....       0.405 sec  (  2.4%)
Orbital Orthonormalization  ....       0.000 sec  (  0.0%)
DIIS solution               ....       0.102 sec  (  0.6%)
Grid generation             ....       0.267 sec  (  1.6%)

Maximum memory used throughout the entire SCF-calculation: 59.2 MB


           ************************************************************
           *        Program running with 16 parallel MPI-processes    *
           *              working on a common directory               *
           ************************************************************
------------------------------------------------------------------------------
                        ORCA TD-DFT/TDA CALCULATION
------------------------------------------------------------------------------

Input orbitals are from        ... cu2+.gbw
CI-vector output               ... cu2+.cis
Tamm-Dancoff approximation     ... operative
CIS-Integral strategy          ... AO-integrals
Integral handling              ... AO integral Direct
Max. core memory used          ... 512 MB
Reference state                ... UHF
Follow IRoot                   ... off
Number of operators            ... 2
Orbital ranges used for CIS calculation:
 Operator 0:  Orbitals   5... 13  to  14... 44
 Operator 1:  Orbitals   5... 12  to  13... 44
XAS localization array:
 Operator 0:  Orbitals  -1... -1
 Operator 1:  Orbitals  -1... -1

-------------------
XC-INTEGRATION GRID
-------------------

General Integration Accuracy     IntAcc      ... 3.467
Radial Grid Type                 RadialGrid  ... OptM3 with GC (2021)
Angular Grid (max. ang.)         AngularGrid ... 1 (Lebedev-50)
Angular grid pruning method      GridPruning ... 4 (adaptive)
Weight generation scheme         WeightScheme... Becke
Basis function cutoff            BFCut       ... 1.0000e-11
Integration weight cutoff        WCut        ... 1.0000e-14
Angular grids for H and He will be reduced by one unit
Partially contracted basis set               ... off
Rotationally invariant grid construction     ... off

Total number of grid points                  ...     4348
Total number of batches                      ...       68
Average number of points per batch           ...       63
Average number of grid points per atom       ...     4348

---------------------
COSX-INTEGRATION GRID
---------------------

General Integration Accuracy     IntAcc      ... 3.067
Radial Grid Type                 RadialGrid  ... OptM3 with GC (2021)
Angular Grid (max. ang.)         AngularGrid ... 1 (Lebedev-50)
Angular grid pruning method      GridPruning ... 4 (adaptive)
Weight generation scheme         WeightScheme... Becke
Basis function cutoff            BFCut       ... 1.0000e-11
Integration weight cutoff        WCut        ... 1.0000e-14
Angular grids for H and He will be reduced by one unit
Partially contracted basis set               ... on
Rotationally invariant grid construction     ... off

Total number of grid points                  ...      838
Total number of batches                      ...       14
Average number of points per batch           ...       59
Average number of grid points per atom       ...      838

---------------
TD-DFT XC SETUP
---------------

DFT calculation                         ... on
Name of the grid file                   ... cu2+.grid_cis.tmp
Exchange functional (TD-DFT)            ... M062X
Correlation functional (TD-DFT)         ... M062X
Hybrid DFT                              ... on
   Exchange mixing (TD-DFT)             ...  0.540
   GGA exch. scaling (TD-DFT)           ...  0.460
   GGA corr. scaling (TD-DFT)           ...  1.000

Building densities             ... done
Calculating rho(r) on the grid ... done
Building xc-kernel on the grid ... done
                    *** TD-DFT CALCULATION INITIALIZED ***

---------------------------------
    LR-CPCM (non-equilibrium)
---------------------------------

Setting up LR-CPCM             ... done

------------------------
DAVIDSON-DIAGONALIZATION
------------------------

Dimension of the eigenvalue problem            ...    535
Number of roots to be determined               ...     12
Maximum size of the expansion space            ...    535
Maximum number of iterations                   ...    100
Convergence tolerance for the residual         ...    2.500e-07
Convergence tolerance for the energies         ...    2.500e-07
Orthogonality tolerance                        ...    1.000e-14
Level Shift                                    ...    0.000e+00
Constructing the preconditioner                ... o.k.
Building the initial guess                     ... o.k.
Number of trial vectors determined             ...    512


                       ****Iteration    0****

   Memory handling for direct AO based CIS:
   Memory per vector needed      ...     1 MB
   Memory needed                 ...     5 MB
   Memory available              ...   512 MB
   Number of vectors per batch   ...   512
   Number of batches             ...     1
   Time for densities:            0.003
   Time for RI-J (Direct):        0.017
   Time for K (COSX):             0.074
   Time for XC-Integration:       0.103
   Time for LR-CPCM terms:        0.146
   Time for Sigma-Completion:     0.007
   Size of expansion space: 36
   Lowest Energy          :     0.008371221310
   Maximum Energy change  :     0.417797904837 (vector 11)
   Maximum residual norm  :     0.032547047915

                       ****Iteration    1****
   Time for densities:            0.001
   Time for RI-J (Direct):        0.009
   Time for K (COSX):             0.055
   Time for XC-Integration:       0.038
   Time for LR-CPCM terms:        0.107
   Time for Sigma-Completion:     0.003
   Size of expansion space: 48
   Lowest Energy          :    -0.009337145970
   Maximum Energy change  :     0.019197167389 (vector 2)
   Maximum residual norm  :     0.000229154724

                       ****Iteration    2****
   Time for densities:            0.001
   Time for RI-J (Direct):        0.010
   Time for K (COSX):             0.058
   Time for XC-Integration:       0.039
   Time for LR-CPCM terms:        0.107
   Time for Sigma-Completion:     0.003
   Size of expansion space: 60
   Lowest Energy          :    -0.009367876261
   Maximum Energy change  :     0.000044703514 (vector 4)
   Maximum residual norm  :     0.000006085972

                       ****Iteration    3****
   Time for densities:            0.001
   Time for RI-J (Direct):        0.010
   Time for K (COSX):             0.056
   Time for XC-Integration:       0.038
   Time for LR-CPCM terms:        0.107
   Time for Sigma-Completion:     0.003
   Size of expansion space: 72
   Lowest Energy          :    -0.009367939868
   Maximum Energy change  :     0.000003259210 (vector 4)
   Maximum residual norm  :     0.000000077625

      *** CONVERGENCE OF RESIDUAL NORM REACHED ***

Storing the converged CI vectors               ... cu2+.cis2

                 *** DAVIDSON DONE ***

Total time for solving the CIS problem:     1.134sec

-------------------------
TD-DFT/TDA EXCITED STATES
-------------------------

the weight of the individual excitations are printed if larger than 1.0e-02

STATE  1:  E=  -0.009368 au     -0.255 eV    -2056.0 cm**-1 <S**2> =   0.751211
    10b ->  13b  :     0.075792 (c=  0.27530341)
    11b ->  13b  :     0.907977 (c= -0.95287816)

STATE  2:  E=  -0.008649 au     -0.235 eV    -1898.3 cm**-1 <S**2> =   0.751187
    10b ->  13b  :     0.907740 (c=  0.95275403)
    11b ->  13b  :     0.075843 (c=  0.27539574)

STATE  3:  E=  -0.006157 au     -0.168 eV    -1351.2 cm**-1 <S**2> =   0.750964
     9b ->  13b  :     0.014903 (c= -0.12207585)
    12b ->  13b  :     0.967831 (c= -0.98378407)

STATE  4:  E=  -0.002630 au     -0.072 eV     -577.1 cm**-1 <S**2> =   0.751122
     9b ->  13b  :     0.967797 (c= -0.98376669)
    12b ->  13b  :     0.014925 (c=  0.12216645)

STATE  5:  E=   0.323880 au      8.813 eV    71083.4 cm**-1 <S**2> =   1.927819
    12b ->  14b  :     0.956947 (c=  0.97823646)
    12b ->  17b  :     0.033273 (c=  0.18240831)

STATE  6:  E=   0.327712 au      8.917 eV    71924.4 cm**-1 <S**2> =   1.936307
    11b ->  14b  :     0.954276 (c= -0.97687049)
    11b ->  17b  :     0.035512 (c= -0.18844564)

STATE  7:  E=   0.330670 au      8.998 eV    72573.7 cm**-1 <S**2> =   1.938786
    10b ->  14b  :     0.954151 (c=  0.97680658)
    10b ->  17b  :     0.035282 (c=  0.18783445)

STATE  8:  E=   0.357388 au      9.725 eV    78437.6 cm**-1 <S**2> =   1.573335
    13a ->  14a  :     0.950824 (c= -0.97510219)
    13a ->  15a  :     0.040065 (c=  0.20016204)

STATE  9:  E=   0.363034 au      9.879 eV    79676.8 cm**-1 <S**2> =   1.963657
    10a ->  14a  :     0.010572 (c=  0.10281855)
     9b ->  14b  :     0.951733 (c= -0.97556817)
     9b ->  17b  :     0.035319 (c= -0.18793229)

STATE 10:  E=   0.368398 au     10.025 eV    80854.0 cm**-1 <S**2> =   1.564837
    12a ->  14a  :     0.950065 (c= -0.97471275)
    12a ->  15a  :     0.040022 (c=  0.20005449)

STATE 11:  E=   0.370609 au     10.085 eV    81339.2 cm**-1 <S**2> =   1.562385
    11a ->  14a  :     0.949823 (c=  0.97458858)
    11a ->  15a  :     0.040027 (c= -0.20006811)

STATE 12:  E=   0.403189 au     10.971 eV    88489.7 cm**-1 <S**2> =   1.537495
    10a ->  14a  :     0.947227 (c= -0.97325563)
    10a ->  15a  :     0.040049 (c=  0.20012170)
     9b ->  14b  :     0.011621 (c= -0.10779985)


-----------------------------
TD-DFT/TDA-EXCITATION SPECTRA
-----------------------------

Center of mass = (  5.2812, -5.3025,  0.0599)
Calculating the Dipole integrals                  ... done
Transforming integrals                            ... done
Calculating the Linear Momentum integrals         ... done
Transforming integrals                            ... done
Calculating angular momentum integrals            ... done
Transforming integrals                            ... done

-----------------------------------------------------------------------------
         ABSORPTION SPECTRUM VIA TRANSITION ELECTRIC DIPOLE MOMENTS
-----------------------------------------------------------------------------
State   Energy    Wavelength  fosc         T2        TX        TY        TZ  
        (cm-1)      (nm)                 (au**2)    (au)      (au)      (au) 
-----------------------------------------------------------------------------
   1   -2056.0   -4863.8   -0.000000000   0.00000  -0.00000  -0.00000  -0.00000
   2   -1898.3   -5268.0   -0.000000000   0.00000   0.00000  -0.00000  -0.00000
   3   -1351.2   -7400.6   -0.000000000   0.00000   0.00000  -0.00000   0.00000
   4    -577.1   -17327.1   -0.000000000   0.00000  -0.00000  -0.00000  -0.00000
   5   71083.4    140.7   0.000000000   0.00000  -0.00000   0.00000   0.00000
   6   71924.4    139.0   0.000000000   0.00000  -0.00000  -0.00000   0.00000
   7   72573.7    137.8   0.000000000   0.00000  -0.00000   0.00000  -0.00000
   8   78437.6    127.5   0.000000000   0.00000   0.00000  -0.00000  -0.00000
   9   79676.8    125.5   0.000000000   0.00000  -0.00000  -0.00000   0.00000
  10   80854.0    123.7   0.000000000   0.00000  -0.00000  -0.00000   0.00000
  11   81339.2    122.9   0.000000000   0.00000  -0.00000   0.00000  -0.00000
  12   88489.7    113.0   0.000000000   0.00000  -0.00000  -0.00000  -0.00000

-----------------------------------------------------------------------------
         ABSORPTION SPECTRUM VIA TRANSITION VELOCITY DIPOLE MOMENTS
-----------------------------------------------------------------------------
State   Energy    Wavelength   fosc        P2         PX        PY        PZ  
        (cm-1)      (nm)                 (au**2)     (au)      (au)      (au) 
-----------------------------------------------------------------------------
   1   -2056.0   -4863.8   -0.000000000   0.00000   0.00000   0.00000  -0.00000
   2   -1898.3   -5268.0   -0.000000000   0.00000  -0.00000   0.00000  -0.00000
   3   -1351.2   -7400.6   -0.000000000   0.00000   0.00000  -0.00000   0.00000
   4    -577.1   -17327.1   -0.000000000   0.00000  -0.00000  -0.00000  -0.00000
   5   71083.4    140.7   0.000000000   0.00000   0.00000  -0.00000  -0.00000
   6   71924.4    139.0   0.000000000   0.00000   0.00000   0.00000   0.00000
   7   72573.7    137.8   0.000000000   0.00000   0.00000  -0.00000   0.00000
   8   78437.6    127.5   0.000000000   0.00000  -0.00000   0.00000   0.00000
   9   79676.8    125.5   0.000000000   0.00000   0.00000   0.00000  -0.00000
  10   80854.0    123.7   0.000000000   0.00000   0.00000   0.00000  -0.00000
  11   81339.2    122.9   0.000000000   0.00000   0.00000  -0.00000   0.00000
  12   88489.7    113.0   0.000000000   0.00000   0.00000   0.00000   0.00000

-------------------------------------------------------------------
                             CD SPECTRUM
-------------------------------------------------------------------
State  Energy     Wavelength     R         MX        MY        MZ   
       (cm-1)       (nm)     (1e40*cgs)   (au)      (au)      (au)  
-------------------------------------------------------------------
   1   -2056.0   -4863.8      0.00000   0.34513  -0.33123   0.00005
   2   -1898.3   -5268.0     -0.00000   0.38164   0.35617  -0.00001
   3   -1351.2   -7400.6     -0.00000   0.00004  -0.00000  -0.12315
   4    -577.1   -17327.1      0.00000  -0.00001  -0.00003  -0.99200
   5   71083.4    140.7      0.00000  -0.00000  -0.00000   0.00142
   6   71924.4    139.0     -0.00000   0.00135  -0.00087   0.00000
   7   72573.7    137.8     -0.00000  -0.00145  -0.00162   0.00000
   8   78437.6    127.5      0.00000  -0.00000  -0.00000  -0.00002
   9   79676.8    125.5      0.00000  -0.00000   0.00000   0.00076
  10   80854.0    123.7     -0.00000  -0.00044   0.00086   0.00000
  11   81339.2    122.9     -0.00000   0.00091   0.00046  -0.00000
  12   88489.7    113.0      0.00000  -0.00000   0.00000  -0.00005

-------------------------------------------------------------------
         CD SPECTRUM VIA TRANSITION VELOCITY DIPOLE MOMENTS        
-------------------------------------------------------------------
State  Energy     Wavelength     R         MX        MY        MZ   
       (cm-1)       (nm)     (1e40*cgs)   (au)      (au)      (au)  
-------------------------------------------------------------------
   1   -2056.0   -4863.8     -0.00000   0.34513  -0.33123   0.00005
   2   -1898.3   -5268.0      0.00000   0.38164   0.35617  -0.00001
   3   -1351.2   -7400.6      0.00000   0.00004  -0.00000  -0.12315
   4    -577.1   -17327.1     -0.00000  -0.00001  -0.00003  -0.99200
   5   71083.4    140.7     -0.00000  -0.00000  -0.00000   0.00142
   6   71924.4    139.0      0.00000   0.00135  -0.00087   0.00000
   7   72573.7    137.8      0.00000  -0.00145  -0.00162   0.00000
   8   78437.6    127.5     -0.00000  -0.00000  -0.00000  -0.00002
   9   79676.8    125.5     -0.00000  -0.00000   0.00000   0.00076
  10   80854.0    123.7      0.00000  -0.00044   0.00086   0.00000
  11   81339.2    122.9      0.00000   0.00091   0.00046  -0.00000
  12   88489.7    113.0     -0.00000  -0.00000   0.00000  -0.00005

Total run time:        1.600 sec

           *** ORCA-CIS/TD-DFT FINISHED WITHOUT ERROR ***

Maximum memory used throughout the entire CIS-calculation: 51.4 MB

-----------------------
CIS/TD-DFT TOTAL ENERGY
-----------------------

    E(SCF)  =  -1640.053038540 Eh
    DE(CIS) =     -0.009367940 Eh (Root  1)
    ----------------------------- ---------
    E(tot)  =  -1640.062406480 Eh


-------------------------   --------------------
FINAL SINGLE POINT ENERGY     -1640.062406480230
-------------------------   --------------------


                            ***************************************
                            *     ORCA property calculations      *
                            ***************************************

                                    ---------------------
                                    Active property flags
                                    ---------------------
   (+) Dipole Moment


------------------------------------------------------------------------------
                       ORCA ELECTRIC PROPERTIES CALCULATION
------------------------------------------------------------------------------

Dipole Moment Calculation                       ... on
Quadrupole Moment Calculation                   ... off
Polarizability Calculation                      ... off
GBWName                                         ... cu2+.gbw
Electron density                                ... cu2+.scfp
The origin for moment calculation is the CENTER OF MASS  = ( 5.281178, -5.302508  0.059945)

-------------
DIPOLE MOMENT
-------------
                                X             Y             Z
Electronic contribution:     -0.00000       0.00000      -0.00000
Nuclear contribution   :      0.00000      -0.00000       0.00000
                        -----------------------------------------
Total Dipole Moment    :     -0.00000       0.00000      -0.00000
                        -----------------------------------------
Magnitude (a.u.)       :      0.00000
Magnitude (Debye)      :      0.00000



--------------------
Rotational spectrum 
--------------------
 
Rotational constants in cm-1:     0.000000     0.000000     0.000000 
Rotational constants in MHz :     0.000000     0.000000     0.000000 

 Dipole components along the rotational axes: 
x,y,z [a.u.] :    -0.000000    -0.000000    -0.000000 
x,y,z [Debye]:    -0.000000    -0.000000    -0.000000 

 

Timings for individual modules:

Sum of individual times         ...       20.096 sec (=   0.335 min)
GTO integral calculation        ...        0.705 sec (=   0.012 min)   3.5 %
SCF iterations                  ...       17.223 sec (=   0.287 min)  85.7 %
CIS module                      ...        2.168 sec (=   0.036 min)  10.8 %
                             ****ORCA TERMINATED NORMALLY****
TOTAL RUN TIME: 0 days 0 hours 0 minutes 20 seconds 739 msec
