
                                 *****************
                                 * O   R   C   A *
                                 *****************

                                            #,                                       
                                            ###                                      
                                            ####                                     
                                            #####                                    
                                            ######                                   
                                           ########,                                 
                                     ,,################,,,,,                         
                               ,,#################################,,                 
                          ,,##########################################,,             
                       ,#########################################, ''#####,          
                    ,#############################################,,   '####,        
                  ,##################################################,,,,####,       
                ,###########''''           ''''###############################       
              ,#####''   ,,,,##########,,,,          '''####'''          '####       
            ,##' ,,,,###########################,,,                        '##       
           ' ,,###''''                  '''############,,,                           
         ,,##''                                '''############,,,,        ,,,,,,###''
      ,#''                                            '''#######################'''  
     '                                                          ''''####''''         
             ,#######,   #######,   ,#######,      ##                                
            ,#'     '#,  ##    ##  ,#'     '#,    #''#        ######   ,####,        
            ##       ##  ##   ,#'  ##            #'  '#       #        #'  '#        
            ##       ##  #######   ##           ,######,      #####,   #    #        
            '#,     ,#'  ##    ##  '#,     ,#' ,#      #,         ##   #,  ,#        
             '#######'   ##     ##  '#######'  #'      '#     #####' # '####'        



                  #######################################################
                  #                        -***-                        #
                  #          Department of theory and spectroscopy      #
                  #    Directorship and core code : Frank Neese         #
                  #        Max Planck Institute fuer Kohlenforschung    #
                  #                Kaiser Wilhelm Platz 1               #
                  #                 D-45470 Muelheim/Ruhr               #
                  #                      Germany                        #
                  #                                                     #
                  #                  All rights reserved                #
                  #                        -***-                        #
                  #######################################################


                         Program Version 5.0.1 -  RELEASE  -


 With contributions from (in alphabetic order):
   Daniel Aravena         : Magnetic Suceptibility
   Michael Atanasov       : Ab Initio Ligand Field Theory (pilot matlab implementation)
   Alexander A. Auer      : GIAO ZORA, VPT2 properties, NMR spectrum
   Ute Becker             : Parallelization
   Giovanni Bistoni       : ED, misc. LED, open-shell LED, HFLD
   Martin Brehm           : Molecular dynamics
   Dmytro Bykov           : SCF Hessian
   Vijay G. Chilkuri      : MRCI spin determinant printing, contributions to CSF-ICE
   Dipayan Datta          : RHF DLPNO-CCSD density
   Achintya Kumar Dutta   : EOM-CC, STEOM-CC
   Dmitry Ganyushin       : Spin-Orbit,Spin-Spin,Magnetic field MRCI
   Miquel Garcia          : C-PCM and meta-GGA Hessian, CC/C-PCM, Gaussian charge scheme
   Yang Guo               : DLPNO-NEVPT2, F12-NEVPT2, CIM, IAO-localization
   Andreas Hansen         : Spin unrestricted coupled pair/coupled cluster methods
   Benjamin Helmich-Paris : MC-RPA, TRAH-SCF, COSX integrals
   Lee Huntington         : MR-EOM, pCC
   Robert Izsak           : Overlap fitted RIJCOSX, COSX-SCS-MP3, EOM
   Marcus Kettner         : VPT2
   Christian Kollmar      : KDIIS, OOCD, Brueckner-CCSD(T), CCSD density, CASPT2, CASPT2-K
   Simone Kossmann        : Meta GGA functionals, TD-DFT gradient, OOMP2, MP2 Hessian
   Martin Krupicka        : Initial AUTO-CI
   Lucas Lang             : DCDCAS
   Marvin Lechner         : AUTO-CI (C++ implementation), FIC-MRCC
   Dagmar Lenk            : GEPOL surface, SMD
   Dimitrios Liakos       : Extrapolation schemes; Compound Job, initial MDCI parallelization
   Dimitrios Manganas     : Further ROCIS development; embedding schemes
   Dimitrios Pantazis     : SARC Basis sets
   Anastasios Papadopoulos: AUTO-CI, single reference methods and gradients
   Taras Petrenko         : DFT Hessian,TD-DFT gradient, ASA, ECA, R-Raman, ABS, FL, XAS/XES, NRVS
   Peter Pinski           : DLPNO-MP2, DLPNO-MP2 Gradient
   Christoph Reimann      : Effective Core Potentials
   Marius Retegan         : Local ZFS, SOC
   Christoph Riplinger    : Optimizer, TS searches, QM/MM, DLPNO-CCSD(T), (RO)-DLPNO pert. Triples
   Tobias Risthaus        : Range-separated hybrids, TD-DFT gradient, RPA, STAB
   Michael Roemelt        : Original ROCIS implementation
   Masaaki Saitow         : Open-shell DLPNO-CCSD energy and density
   Barbara Sandhoefer     : DKH picture change effects
   Avijit Sen             : IP-ROCIS
   Kantharuban Sivalingam : CASSCF convergence, NEVPT2, FIC-MRCI
   Bernardo de Souza      : ESD, SOC TD-DFT
   Georgi Stoychev        : AutoAux, RI-MP2 NMR, DLPNO-MP2 response
   Willem Van den Heuvel  : Paramagnetic NMR
   Boris Wezisla          : Elementary symmetry handling
   Frank Wennmohs         : Technical directorship


 We gratefully acknowledge several colleagues who have allowed us to
 interface, adapt or use parts of their codes:
   Stefan Grimme, W. Hujo, H. Kruse, P. Pracht,  : VdW corrections, initial TS optimization,
                  C. Bannwarth, S. Ehlert          DFT functionals, gCP, sTDA/sTD-DF
   Ed Valeev, F. Pavosevic, A. Kumar             : LibInt (2-el integral package), F12 methods
   Garnet Chan, S. Sharma, J. Yang, R. Olivares  : DMRG
   Ulf Ekstrom                                   : XCFun DFT Library
   Mihaly Kallay                                 : mrcc  (arbitrary order and MRCC methods)
   Jiri Pittner, Ondrej Demel                    : Mk-CCSD
   Frank Weinhold                                : gennbo (NPA and NBO analysis)
   Christopher J. Cramer and Donald G. Truhlar   : smd solvation model
   Lars Goerigk                                  : TD-DFT with DH, B97 family of functionals
   V. Asgeirsson, H. Jonsson                     : NEB implementation
   FAccTs GmbH                                   : IRC, NEB, NEB-TS, DLPNO-Multilevel, CI-OPT
                                                   MM, QMMM, 2- and 3-layer-ONIOM, Crystal-QMMM,
                                                   LR-CPCM, SF, NACMEs, symmetry and pop. for TD-DFT,
                                                   nearIR, NL-DFT gradient (VV10), updates on ESD,
                                                   ML-optimized integration grids
   S Lehtola, MJT Oliveira, MAL Marques          : LibXC Library
   Liviu Ungur et al                             : ANISO software


 Your calculation uses the libint2 library for the computation of 2-el integrals
 For citations please refer to: http://libint.valeyev.net

 Your ORCA version has been built with support for libXC version: 5.1.0
 For citations please refer to: https://tddft.org/programs/libxc/

 This ORCA versions uses:
   CBLAS   interface :  Fast vector & matrix operations
   LAPACKE interface :  Fast linear algebra routines
   SCALAPACK package :  Parallel linear algebra routines
   Shared memory     :  Shared parallel matrices
   BLAS/LAPACK       :  OpenBLAS 0.3.15  USE64BITINT DYNAMIC_ARCH NO_AFFINITY Haswell SINGLE_THREADED
        Core in use  :  Haswell
   Copyright (c) 2011-2014, The OpenBLAS Project




***************************************
The coordinates will be read from file: cu+cu.xyz
***************************************


Your calculation utilizes the atom-pairwise dispersion correction
with the Becke-Johnson damping scheme (D3BJ)
Cite in your paper:
S.Grimme, S.Ehrlich, L.Goerigk, J Comput Chem, (2011), 32, 1456–1465 
S.Grimme, J.Antony, S.Ehrlich and H.Krieg, J.Chem.Phys., 132, (2010), 154104 
   

================================================================================

----- Orbital basis set information -----
Your calculation utilizes the basis: def2-TZVP
   F. Weigend and R. Ahlrichs, Phys. Chem. Chem. Phys. 7, 3297 (2005).

----- AuxJ basis set information -----
Your calculation utilizes the auxiliary basis: def2/J
   F. Weigend, Phys. Chem. Chem. Phys. 8, 1057 (2006).

================================================================================
                                        WARNINGS
                       Please study these warnings very carefully!
================================================================================


WARNING: The environment variable RSH_COMMAND is not set!
  ===> : All Displacements for the Numerical Hessian calculation
         will be started on localhost

WARNING: Geometry Optimization
  ===> : Switching off AutoStart
         For restart on a previous wavefunction, please use MOREAD

INFO   : the flag for use of the SHARK integral package has been found!

================================================================================
                                       INPUT FILE
================================================================================
NAME = ex.inp
|  1> ! PBE D3 def2-TZVP opt numfreq
|  2> 
|  3> %base "cu2"
|  4> %pal nprocs=8 end
|  5> %geom maxiter=75 end
|  6> *xyzfile 0 1 cu+cu.xyz
|  7> 
|  8>                          ****END OF INPUT****
================================================================================

                       *****************************
                       * Geometry Optimization Run *
                       *****************************

Geometry optimization settings:
Update method            Update   .... BFGS
Choice of coordinates    CoordSys .... Z-matrix Internals
Initial Hessian          InHess   .... Almoef's Model

Convergence Tolerances:
Energy Change            TolE     ....  5.0000e-06 Eh
Max. Gradient            TolMAXG  ....  3.0000e-04 Eh/bohr
RMS Gradient             TolRMSG  ....  1.0000e-04 Eh/bohr
Max. Displacement        TolMAXD  ....  4.0000e-03 bohr
RMS Displacement         TolRMSD  ....  2.0000e-03 bohr
Strict Convergence                ....  False
------------------------------------------------------------------------------
                        ORCA OPTIMIZATION COORDINATE SETUP
------------------------------------------------------------------------------

The optimization will be done in new redundant internal coordinates
Making redundant internal coordinates   ...  (new redundants) done
Evaluating the initial hessian          ...  (Almloef) done
Evaluating the coordinates              ...  done
Calculating the B-matrix                .... done
Calculating the G-matrix                .... done
Diagonalizing the G-matrix              .... done
The first mode is                       ....    0
The number of degrees of freedom        ....    1

    -----------------------------------------------------------------
                    Redundant Internal Coordinates


    -----------------------------------------------------------------
         Definition                    Initial Value    Approx d2E/dq
    -----------------------------------------------------------------
      1. B(Cu  1,Cu  0)                  0.1000        7313.088913   
    -----------------------------------------------------------------

Number of atoms                         .... 2
Number of degrees of freedom            .... 1

         *************************************************************
         *                GEOMETRY OPTIMIZATION CYCLE   1            *
         *************************************************************
---------------------------------
CARTESIAN COORDINATES (ANGSTROEM)
---------------------------------
  Cu     0.000000    0.000000    0.000000
  Cu     0.000000    0.000000    0.100000

----------------------------
CARTESIAN COORDINATES (A.U.)
----------------------------
  NO LB      ZA    FRAG     MASS         X           Y           Z
   0 Cu   29.0000    0    63.550    0.000000    0.000000    0.000000
   1 Cu   29.0000    0    63.550    0.000000    0.000000    0.188973

--------------------------------
INTERNAL COORDINATES (ANGSTROEM)
--------------------------------
 Cu     0   0   0     0.000000000000     0.00000000     0.00000000
 Cu     1   0   0     0.100000000000     0.00000000     0.00000000

---------------------------
INTERNAL COORDINATES (A.U.)
---------------------------
 Cu     0   0   0     0.000000000000     0.00000000     0.00000000
 Cu     1   0   0     0.188972613392     0.00000000     0.00000000

---------------------
BASIS SET INFORMATION
---------------------
There are 1 groups of distinct atoms

 Group   1 Type Cu  : 17s11p7d1f contracted to 6s4p4d1f pattern {842111/6311/4111/1}

Atom   0Cu   basis set group =>   1
Atom   1Cu   basis set group =>   1
---------------------------------
AUXILIARY/J BASIS SET INFORMATION
---------------------------------
There are 1 groups of distinct atoms

 Group   1 Type Cu  : 19s5p5d3f3g contracted to 8s5p4d3f3g pattern {121111111/11111/2111/111/111}

Atom   0Cu   basis set group =>   1
Atom   1Cu   basis set group =>   1


           ************************************************************
           *        Program running with 8 parallel MPI-processes     *
           *              working on a common directory               *
           ************************************************************
------------------------------------------------------------------------------
                           ORCA GTO INTEGRAL CALCULATION
                           -- RI-GTO INTEGRALS CHOSEN --
------------------------------------------------------------------------------
------------------------------------------------------------------------------
                   ___                                                        
                  /   \      - P O W E R E D   B Y -                         
                 /     \                                                     
                 |  |  |   _    _      __       _____    __    __             
                 |  |  |  | |  | |    /  \     |  _  \  |  |  /  |          
                  \  \/   | |  | |   /    \    | | | |  |  | /  /          
                 / \  \   | |__| |  /  /\  \   | |_| |  |  |/  /          
                |  |  |   |  __  | /  /__\  \  |    /   |      \           
                |  |  |   | |  | | |   __   |  |    \   |  |\   \          
                \     /   | |  | | |  |  |  |  | |\  \  |  | \   \       
                 \___/    |_|  |_| |__|  |__|  |_| \__\ |__|  \__/        
                                                                              
                      - O R C A' S   B I G   F R I E N D -                    
                                      &                                       
                       - I N T E G R A L  F E E D E R -                       
                                                                              
 v1 FN, 2020, v2 2021                                                         
------------------------------------------------------------------------------


Reading SHARK input file cu2.SHARKINP.tmp ... ok
----------------------
SHARK INTEGRAL PACKAGE
----------------------

Number of atoms                             ...      2
Number of basis functions                   ...     90
Number of shells                            ...     30
Maximum angular momentum                    ...      3
Integral batch strategy                     ... SHARK/LIBINT Hybrid
RI-J (if used) integral strategy            ... SPLIT-RIJ (Revised 2003 algorithm where possible)
Printlevel                                  ...      1
Contraction scheme used                     ... SEGMENTED contraction
Coulomb Range Separation                    ... NOT USED
Exchange Range Separation                   ... NOT USED
Finite Nucleus Model                        ... NOT USED
Auxiliary Coulomb fitting basis             ... AVAILABLE
   # of basis functions in Aux-J            ...    182
   # of shells in Aux-J                     ...     46
   Maximum angular momentum in Aux-J        ...      4
Auxiliary J/K fitting basis                 ... NOT available
Auxiliary Correlation fitting basis         ... NOT available
Auxiliary 'external' fitting basis          ... NOT available
Integral threshold                          ...     2.500000e-11
Primitive cut-off                           ...     2.500000e-12
Primitive pair pre-selection threshold      ...     2.500000e-12

Calculating pre-screening integrals         ... done (  0.0 sec) Dimension = 30
Organizing shell pair data                  ... done (  0.0 sec)
Shell pair information
Total number of shell pairs                 ...       465
Shell pairs after pre-screening             ...       465
Total number of primitive shell pairs       ...      2746
Primitive shell pairs kept                  ...      2716
          la=0 lb=0:     78 shell pairs
          la=1 lb=0:     96 shell pairs
          la=1 lb=1:     36 shell pairs
          la=2 lb=0:     96 shell pairs
          la=2 lb=1:     64 shell pairs
          la=2 lb=2:     36 shell pairs
          la=3 lb=0:     24 shell pairs
          la=3 lb=1:     16 shell pairs
          la=3 lb=2:     16 shell pairs
          la=3 lb=3:      3 shell pairs

Calculating one electron integrals          ... done (  0.0 sec)
Calculating RI/J V-Matrix + Cholesky decomp.... done (  0.0 sec)
Calculating Nuclear repulsion               ... done (  0.0 sec) ENN=   4450.380321803001 Eh

SHARK setup successfully completed in   0.1 seconds

Maximum memory used throughout the entire GTOINT-calculation: 17.2 MB


           ************************************************************
           *        Program running with 8 parallel MPI-processes     *
           *              working on a common directory               *
           ************************************************************
-------------------------------------------------------------------------------
                                 ORCA SCF
-------------------------------------------------------------------------------

------------
SCF SETTINGS
------------
Hamiltonian:
 Density Functional     Method          .... DFT(GTOs)
 Exchange Functional    Exchange        .... PBE
   PBE kappa parameter   XKappa         ....  0.804000
   PBE mue parameter    XMuePBE         ....  0.219520
 Correlation Functional Correlation     .... PBE
   PBE beta parameter  CBetaPBE         ....  0.066725
 LDA part of GGA corr.  LDAOpt          .... PW91-LDA
 Gradients option       PostSCFGGA      .... off
   Density functional embedding theory  .... OFF
   NL short-range parameter             ....  6.400000
 RI-approximation to the Coulomb term is turned on
   Number of AuxJ basis functions       .... 182


General Settings:
 Integral files         IntName         .... cu2
 Hartree-Fock type      HFTyp           .... RHF
 Total Charge           Charge          ....    0
 Multiplicity           Mult            ....    1
 Number of Electrons    NEL             ....   58
 Basis Dimension        Dim             ....   90
 Nuclear Repulsion      ENuc            ....   4450.3803218030 Eh

Convergence Acceleration:
 DIIS                   CNVDIIS         .... on
   Start iteration      DIISMaxIt       ....    12
   Startup error        DIISStart       ....  0.200000
   # of expansion vecs  DIISMaxEq       ....     5
   Bias factor          DIISBfac        ....   1.050
   Max. coefficient     DIISMaxC        ....  10.000
 Trust-Rad. Augm. Hess. CNVTRAH         .... auto
   Auto Start mean grad. ratio tolernc. ....  1.125000
   Auto Start start iteration           ....    20
   Auto Start num. interpolation iter.  ....    10
   Max. Number of Micro iterations      ....    16
   Max. Number of Macro iterations      .... Maxiter - #DIIS iter
   Number of Davidson start vectors     ....     2
   Converg. threshold I  (grad. norm)   ....   1.000e-05
   Converg. threshold II (energy diff.) ....   1.000e-08
   Grad. Scal. Fac. for Micro threshold ....   0.100
   Minimum threshold for Micro iter.    ....   0.010
   NR start threshold (gradient norm)   ....   0.001
   Initial trust radius                 ....   0.400
   Minimum AH scaling param. (alpha)    ....   1.000
   Maximum AH scaling param. (alpha)    .... 1000.000
   Orbital update algorithm             .... Taylor
   White noise on init. David. guess    .... on
   Maximum white noise                  ....   0.010
   Quad. conv. algorithm                .... NR
 SOSCF                  CNVSOSCF        .... off
 Level Shifting         CNVShift        .... on
   Level shift para.    LevelShift      ....    0.2500
   Turn off err/grad.   ShiftErr        ....    0.0010
 Zerner damping         CNVZerner       .... off
 Static damping         CNVDamp         .... on
   Fraction old density DampFac         ....    0.7000
   Max. Damping (<1)    DampMax         ....    0.9800
   Min. Damping (>=0)   DampMin         ....    0.0000
   Turn off err/grad.   DampErr         ....    0.1000
 Fernandez-Rico         CNVRico         .... off

SCF Procedure:
 Maximum # iterations   MaxIter         ....   125
 SCF integral mode      SCFMode         .... Direct
   Integral package                     .... SHARK and LIBINT hybrid scheme
 Reset frequency        DirectResetFreq ....    20
 Integral Threshold     Thresh          ....  2.500e-11 Eh
 Primitive CutOff       TCut            ....  2.500e-12 Eh

Convergence Tolerance:
 Convergence Check Mode ConvCheckMode   .... Total+1el-Energy
 Convergence forced     ConvForced      .... 0
 Energy Change          TolE            ....  1.000e-08 Eh
 1-El. energy change                    ....  1.000e-05 Eh
 DIIS Error             TolErr          ....  5.000e-07


Diagonalization of the overlap matrix:
Smallest eigenvalue                        ... 2.009e-05
Time for diagonalization                   ...    0.005 sec
Threshold for overlap eigenvalues          ... 1.000e-08
Number of eigenvalues below threshold      ... 0
Time for construction of square roots      ...    0.001 sec
Total time needed                          ...    0.006 sec

Time for model grid setup =    0.056 sec

------------------------------
INITIAL GUESS: MODEL POTENTIAL
------------------------------
Loading Hartree-Fock densities                     ... done
Calculating cut-offs                               ... done
Initializing the effective Hamiltonian             ... done
Setting up the integral package (SHARK)            ... done
Starting the Coulomb interaction                   ... done (   0.0 sec)
Reading the grid                                   ... done
Mapping shells                                     ... done
Starting the XC term evaluation                    ... done (   0.0 sec)
  promolecular density results
     # of electrons  =     57.996681041
     EX              =   -149.496895489
     EC              =     -3.214259054
     EX+EC           =   -152.711154544
Transforming the Hamiltonian                       ... done (   0.0 sec)
Diagonalizing the Hamiltonian                      ... done (   0.0 sec)
Back transforming the eigenvectors                 ... done (   0.0 sec)
Now organizing SCF variables                       ... done
                      ------------------
                      INITIAL GUESS DONE (   0.1 sec)
                      ------------------
-------------------
DFT GRID GENERATION
-------------------

General Integration Accuracy     IntAcc      ... 4.388
Radial Grid Type                 RadialGrid  ... OptM3 with GC (2021)
Angular Grid (max. ang.)         AngularGrid ... 4 (Lebedev-302)
Angular grid pruning method      GridPruning ... 4 (adaptive)
Weight generation scheme         WeightScheme... Becke
Basis function cutoff            BFCut       ... 1.0000e-11
Integration weight cutoff        WCut        ... 1.0000e-14
Angular grids for H and He will be reduced by one unit
Partially contracted basis set               ... off
Rotationally invariant grid construction     ... off

Total number of grid points                  ...    22448
Total number of batches                      ...      352
Average number of points per batch           ...       63
Average number of grid points per atom       ...    11224
Time for grid setup =    0.185 sec

--------------
SCF ITERATIONS
--------------
ITER       Energy         Delta-E        Max-DP      RMS-DP      [F,P]     Damp
               ***  Starting incremental Fock matrix formation  ***
  0  -1160.8702647121   0.000000000000828.26892364 17.44152847  0.9811959 0.7000
  1  -1159.8385445254   1.031720186702252.11022703  5.48504729  0.5368626 0.7000
                               ***Turning on DIIS***
  2  -1161.4832680446  -1.644723519150174.42303804  3.69841034  0.1780924 0.7000
  3  -1162.2877489166  -0.804480871997120.93696958  2.54818608  0.1854981 0.7000
  4  -1162.7694655399  -0.48171662328284.07399903  1.76754679  0.1559204 0.7000
  5  -1163.0927294528  -0.32326391290758.38872450  1.23097315  0.1319011 0.7000
  6  -1163.3227294835  -0.23000003069440.56154215  0.86561915  0.1171489 0.7000
  7  -1163.4879842606  -0.16525477716094.01860438  2.05751377  0.0897081 0.0000
  8  -1163.8727323971  -0.384748136479 2.30908908  0.06925149  0.0206637 0.0000
  9  -1163.8738239325  -0.001091535399 1.50603255  0.04470326  0.0097295 0.0000
 10  -1163.8741160678  -0.000292135236 0.43580146  0.01216452  0.0037347 0.0000
 11  -1163.8741559906  -0.000039922840 0.15407464  0.00320377  0.0005823 0.0000
 12  -1163.8741560224  -0.000000031810 0.01892958  0.00059249  0.0007533 0.0000
 13  -1163.8741571005  -0.000001078096 0.00553271  0.00018606  0.0004243 0.0000
 14  -1163.8741574971  -0.000000396605 0.00100042  0.00004012  0.0000392 0.0000
 15  -1163.8741574923   0.000000004838 0.00078591  0.00001928  0.0000618 0.0000
 16  -1163.8741574990  -0.000000006695 0.00103958  0.00002733  0.0000282 0.0000
 17  -1163.8741575010  -0.000000001995 0.00174957  0.00003992  0.0000034 0.0000
 18  -1163.8741575012  -0.000000000252 0.00085673  0.00001909  0.0000023 0.0000
                            ***DIIS convergence achieved***

               *****************************************************
               *                     SUCCESS                       *
               *           SCF CONVERGED AFTER  19 CYCLES          *
               *****************************************************


----------------
TOTAL SCF ENERGY
----------------

Total Energy       :        -1163.87415750 Eh          -31670.62593 eV

Components:
Nuclear Repulsion  :         4450.38032180 Eh          121101.00521 eV
Electronic Energy  :        -5614.25447930 Eh         -152771.63114 eV
One Electron Energy:        -8238.42836974 Eh         -224179.03298 eV
Two Electron Energy:         2624.17389044 Eh           71407.40184 eV

Virial components:
Potential Energy   :        -5284.98427234 Eh         -143811.73330 eV
Kinetic Energy     :         4121.11011484 Eh          112141.10737 eV
Virial Ratio       :            1.28241763


DFT components:
N(Alpha)           :       28.999993443250 electrons
N(Beta)            :       28.999993443250 electrons
N(Total)           :       57.999986886500 electrons
E(X)               :     -154.408672880103 Eh       
E(C)               :       -3.215329298762 Eh       
E(XC)              :     -157.624002178865 Eh       
DFET-embed. en.    :        0.000000000000 Eh       

---------------
SCF CONVERGENCE
---------------

  Last Energy change         ...   -5.0795e-10  Tolerance :   1.0000e-08
  Last MAX-Density change    ...    2.9136e-03  Tolerance :   1.0000e-07
  Last RMS-Density change    ...    7.3242e-05  Tolerance :   5.0000e-09
  Last DIIS Error            ...    2.4199e-07  Tolerance :   5.0000e-07

================================================================================
                                        WARNING
Check your MOs and check whether a frozen core calculation is appropriate
MO 0 should be a Cu s core orbital but seems to be delocalized with a Cu p orbital (84.6% vs. 13.4%)
================================================================================
================================================================================
                                        WARNING
Check your MOs and check whether a frozen core calculation is appropriate
MO 6 should be a Cu p core orbital but seems to be delocalized with a Cu s orbital (49.3% vs. 42.4%)
================================================================================
================================================================================
                                        WARNING
Check your MOs and check whether a frozen core calculation is appropriate
MO 9 should be a Cu p core orbital but seems to be delocalized with a Cu s orbital (62.0% vs. 59.9%)
================================================================================
             **** THE GBW FILE WAS UPDATED (cu2.gbw) ****
             **** DENSITY cu2.scfp WAS UPDATED ****
             **** ENERGY FILE WAS UPDATED (cu2.en.tmp) ****
             **** THE GBW FILE WAS UPDATED (cu2.gbw) ****
             **** DENSITY cu2.scfp WAS UPDATED ****
----------------
ORBITAL ENERGIES
----------------

  NO   OCC          E(Eh)            E(eV) 
   0   2.0000    -412.800928    -11232.8843 
   1   2.0000    -386.418805    -10514.9903 
   2   2.0000     -97.402712     -2650.4625 
   3   2.0000     -97.402712     -2650.4625 
   4   2.0000     -97.040219     -2640.5986 
   5   2.0000     -75.758296     -2061.4880 
   6   2.0000     -61.625081     -1676.9037 
   7   2.0000     -50.853746     -1383.8008 
   8   2.0000     -50.853746     -1383.8008 
   9   2.0000     -15.035069      -409.1250 
  10   2.0000     -14.311577      -389.4378 
  11   2.0000     -14.311577      -389.4378 
  12   2.0000     -14.060254      -382.5990 
  13   2.0000     -14.060232      -382.5984 
  14   2.0000      -9.485867      -258.1236 
  15   2.0000      -9.143030      -248.7945 
  16   2.0000      -5.490884      -149.4146 
  17   2.0000      -5.490884      -149.4146 
  18   2.0000      -1.998874       -54.3921 
  19   2.0000      -1.525628       -41.5144 
  20   2.0000      -1.482217       -40.3332 
  21   2.0000      -1.482217       -40.3332 
  22   2.0000      -0.601812       -16.3761 
  23   2.0000      -0.601812       -16.3761 
  24   2.0000      -0.527629       -14.3575 
  25   2.0000      -0.224299        -6.1035 
  26   2.0000      -0.224231        -6.1016 
  27   2.0000      -0.084220        -2.2917 
  28   2.0000      -0.084219        -2.2917 
  29   0.0000      -0.075735        -2.0609 
  30   0.0000      -0.007965        -0.2167 
  31   0.0000       0.020273         0.5516 
  32   0.0000       0.078487         2.1357 
  33   0.0000       0.078487         2.1357 
  34   0.0000       0.168479         4.5846 
  35   0.0000       0.211958         5.7677 
  36   0.0000       0.211958         5.7677 
  37   0.0000       0.225529         6.1370 
  38   0.0000       0.249498         6.7892 
  39   0.0000       0.249498         6.7892 
  40   0.0000       0.266313         7.2467 
  41   0.0000       0.266316         7.2468 
  42   0.0000       0.271319         7.3830 
  43   0.0000       0.286877         7.8063 
  44   0.0000       0.291202         7.9240 
  45   0.0000       0.291202         7.9240 
  46   0.0000       0.294973         8.0266 
  47   0.0000       0.294973         8.0266 
  48   0.0000       0.785391        21.3716 
  49   0.0000       0.785391        21.3716 
  50   0.0000       0.812421        22.1071 
  51   0.0000       0.817930        22.2570 
  52   0.0000       0.953929        25.9577 
  53   0.0000       0.953935        25.9579 
  54   0.0000       1.015999        27.6467 
  55   0.0000       1.015999        27.6467 
  56   0.0000       1.093638        29.7594 
  57   0.0000       1.155871        31.4528 
  58   0.0000       1.155871        31.4529 
  59   0.0000       1.513120        41.1741 
  60   0.0000       2.109291        57.3967 
  61   0.0000       2.109291        57.3967 
  62   0.0000       2.363865        64.3240 
  63   0.0000       2.363865        64.3240 
  64   0.0000       2.374640        64.6172 
  65   0.0000       2.374640        64.6172 
  66   0.0000       2.589083        70.4525 
  67   0.0000       3.010379        81.9166 
  68   0.0000       3.010404        81.9173 
  69   0.0000       3.433205        93.4223 
  70   0.0000       3.554958        96.7353 
  71   0.0000       4.735496       128.8594 
  72   0.0000       4.735496       128.8594 
  73   0.0000       6.351067       172.8213 
  74   0.0000       6.351118       172.8227 
  75   0.0000       6.582158       179.1096 
  76   0.0000       6.649098       180.9312 
  77   0.0000       6.649098       180.9312 
  78   0.0000       6.864124       186.7823 
  79   0.0000       6.864124       186.7823 
  80   0.0000       7.245538       197.1611 
  81   0.0000       7.505256       204.2284 
  82   0.0000       7.505256       204.2284 
  83   0.0000       8.654908       235.5120 
  84   0.0000       8.654980       235.5140 
  85   0.0000      29.112501       792.1914 
  86   0.0000      32.007509       870.9686 
  87   0.0000      41.275697      1123.1688 
  88   0.0000      41.275697      1123.1688 
  89   0.0000     289.937999      7889.6140 

                    ********************************
                    * MULLIKEN POPULATION ANALYSIS *
                    ********************************

-----------------------
MULLIKEN ATOMIC CHARGES
-----------------------
   0 Cu:    0.000004
   1 Cu:   -0.000004
Sum of atomic charges:   -0.0000000

--------------------------------
MULLIKEN REDUCED ORBITAL CHARGES
--------------------------------
  0 Cus       :     4.125504  s :     4.125504
      pz      :     4.834142  p :    13.670107
      px      :     4.417982
      py      :     4.417982
      dz2     :     2.267164  d :    11.686223
      dxz     :     1.670916
      dyz     :     1.670916
      dx2y2   :     3.038622
      dxy     :     3.038606
      f0      :    -0.226815  f :    -0.481839
      f+1     :    -0.088898
      f-1     :    -0.088898
      f+2     :    -0.038622
      f-2     :    -0.038606
      f+3     :     0.000000
      f-3     :     0.000000
  1 Cus       :     4.125512  s :     4.125512
      pz      :     4.834144  p :    13.670109
      px      :     4.417982
      py      :     4.417982
      dz2     :     2.267164  d :    11.686223
      dxz     :     1.670916
      dyz     :     1.670916
      dx2y2   :     3.038622
      dxy     :     3.038606
      f0      :    -0.226815  f :    -0.481839
      f+1     :    -0.088898
      f-1     :    -0.088898
      f+2     :    -0.038622
      f-2     :    -0.038606
      f+3     :     0.000000
      f-3     :     0.000000


                     *******************************
                     * LOEWDIN POPULATION ANALYSIS *
                     *******************************

----------------------
LOEWDIN ATOMIC CHARGES
----------------------
   0 Cu:    0.000000
   1 Cu:   -0.000000

-------------------------------
LOEWDIN REDUCED ORBITAL CHARGES
-------------------------------
  0 Cus       :     5.047459  s :     5.047459
      pz      :     3.946786  p :    11.868673
      px      :     3.960943
      py      :     3.960943
      dz2     :     1.765427  d :    10.103834
      dxz     :     1.692345
      dyz     :     1.692345
      dx2y2   :     2.476865
      dxy     :     2.476851
      f0      :     0.240327  f :     1.980034
      f+1     :     0.346712
      f-1     :     0.346712
      f+2     :     0.523135
      f-2     :     0.523149
      f+3     :     0.000000
      f-3     :     0.000000
  1 Cus       :     5.047459  s :     5.047459
      pz      :     3.946786  p :    11.868673
      px      :     3.960943
      py      :     3.960943
      dz2     :     1.765427  d :    10.103834
      dxz     :     1.692345
      dyz     :     1.692345
      dx2y2   :     2.476865
      dxy     :     2.476851
      f0      :     0.240327  f :     1.980034
      f+1     :     0.346712
      f-1     :     0.346712
      f+2     :     0.523135
      f-2     :     0.523149
      f+3     :     0.000000
      f-3     :     0.000000


                      *****************************
                      * MAYER POPULATION ANALYSIS *
                      *****************************

  NA   - Mulliken gross atomic population
  ZA   - Total nuclear charge
  QA   - Mulliken gross atomic charge
  VA   - Mayer's total valence
  BVA  - Mayer's bonded valence
  FA   - Mayer's free valence

  ATOM       NA         ZA         QA         VA         BVA        FA
  0 Cu    29.0000    29.0000     0.0000   -45.0925   -45.0925     0.0000
  1 Cu    29.0000    29.0000    -0.0000   -45.0925   -45.0925    -0.0000

  Mayer bond orders larger than 0.100000
B(  0-Cu,  1-Cu) : -45.0925 

-------
TIMINGS
-------

Total SCF time: 0 days 0 hours 0 min 1 sec 

Total time                  ....       1.252 sec
Sum of individual times     ....       1.184 sec  ( 94.6%)

Fock matrix formation       ....       0.830 sec  ( 66.3%)
  Split-RI-J                ....       0.294 sec  ( 35.5% of F)
  XC integration            ....       0.504 sec  ( 60.7% of F)
    Basis function eval.    ....       0.092 sec  ( 18.3% of XC)
    Density eval.           ....       0.067 sec  ( 13.3% of XC)
    XC-Functional eval.     ....       0.029 sec  (  5.8% of XC)
    XC-Potential eval.      ....       0.097 sec  ( 19.2% of XC)
Diagonalization             ....       0.042 sec  (  3.3%)
Density matrix formation    ....       0.002 sec  (  0.2%)
Population analysis         ....       0.002 sec  (  0.2%)
Initial guess               ....       0.023 sec  (  1.8%)
Orbital Transformation      ....       0.000 sec  (  0.0%)
Orbital Orthonormalization  ....       0.000 sec  (  0.0%)
DIIS solution               ....       0.045 sec  (  3.6%)
Grid generation             ....       0.241 sec  ( 19.2%)

Maximum memory used throughout the entire SCF-calculation: 10.1 MB


-------------------------------------------------------------------------------
                          DFT DISPERSION CORRECTION                            
                                                                               
                              DFTD3 V3.1  Rev 1                                
                          USING Becke-Johnson damping                          
-------------------------------------------------------------------------------
The PBE functional is recognized
Active option DFTDOPT                   ...         4   

molecular C6(AA) [au] = 709.181990 


            DFT-D V3
 parameters
 s6 scaling factor         :     1.0000 
 a1 scaling factor         :     0.4289 
 s8 scaling factor         :     0.7875 
 a2 scaling factor         :     4.4407 
 ad hoc parameters k1-k3   :    16.0000     1.3333    -4.0000 

 Edisp/kcal,au: -0.646459575802  -0.001030198799 
 E6   /kcal   :  -0.334706249 
 E8   /kcal   :  -0.311753327 
 % E8         :  48.224721007 

-------------------------   ----------------
Dispersion correction           -0.001030199
-------------------------   ----------------


-------------------------   --------------------
FINAL SINGLE POINT ENERGY     -1163.875187700513
-------------------------   --------------------



           ************************************************************
           *        Program running with 8 parallel MPI-processes     *
           *              working on a common directory               *
           ************************************************************
------------------------------------------------------------------------------
                         ORCA SCF GRADIENT CALCULATION
------------------------------------------------------------------------------

Gradient of the Kohn-Sham DFT energy:
Kohn-Sham wavefunction type      ... RKS
Hartree-Fock exchange scaling    ...    0.000
Number of operators              ...    1
Number of atoms                  ...    2
Basis set dimensions             ...   90
Integral neglect threshold       ... 2.5e-11
Integral primitive cutoff        ... 2.5e-12
SHARK Integral package           ... ON

Nuc. rep. gradient       (SHARK) ... done (  0.0 sec)
HCore & Overlap gradient (SHARK) ... done (  0.0 sec)
RI-J gradient            (SHARK) ... done (  0.2 sec)
Exchange-correlation gradient    ... done
Dispersion correction            ... done

------------------
CARTESIAN GRADIENT
------------------

   1   Cu  :    0.000000007    0.000000015 18332.516417761
   2   Cu  :   -0.000000007   -0.000000015 -18332.516417761

Difference to translation invariance:
           :    0.0000000000   -0.0000000000    0.0000000000

Difference to rotation invariance:
           :    0.0000000028   -0.0000000014    0.0000000000

Norm of the cartesian gradient     ... 25926.0933504252
RMS gradient                       ... 10584.2832887176
MAX gradient                       ... 18332.5164177611

-------
TIMINGS
-------

Total SCF gradient time            ...        0.362 sec

One electron gradient       ....       0.008 sec  (  2.2%)
RI-J Coulomb gradient       ....       0.189 sec  ( 52.3%)
XC gradient                 ....       0.062 sec  ( 17.1%)

Maximum memory used throughout the entire SCFGRAD-calculation: 27.6 MB
------------------------------------------------------------------------------
                         ORCA GEOMETRY RELAXATION STEP
------------------------------------------------------------------------------

Reading the OPT-File                    .... done
Getting information on internals        .... done
Copying old internal coords+grads       .... done
Making the new internal coordinates     .... (new redundants).... done
Validating the new internal coordinates .... (new redundants).... done
Calculating the B-matrix                .... done
Calculating the G,G- and P matrices     .... done
Transforming gradient to internals      .... done
Projecting the internal gradient        .... done
Number of atoms                         ....   2
Number of internal coordinates          ....   1
Current Energy                          .... -1163.875187701 Eh
Current gradient norm                   .... 25926.093350425 Eh/bohr
Maximum allowed component of the step   ....  0.300
Current trust radius                    ....  0.300
Evaluating the initial hessian          ....  (Almloef) done
Projecting the Hessian                  .... done
Forming the augmented Hessian           .... done
Diagonalizing the augmented Hessian     .... done
Last element of RFO vector              ....  0.773176519
Lowest eigenvalues of augmented Hessian:
 -15037.076797043
Length of the computed step             ....  0.820240738
Warning: the length of the step is outside the trust region - taking restricted step instead
The input lambda is                     .... -15037.076797
   iter:   1  x=-24717.258372  g=    0.000060 f(x)=     0.582795
   iter:   2  x=-36332.419856  g=    0.000020 f(x)=     0.237583
   iter:   3  x=-47022.814614  g=    0.000008 f(x)=     0.086427
   iter:   4  x=-52711.015488  g=    0.000004 f(x)=     0.023834
   iter:   5  x=-53766.610207  g=    0.000003 f(x)=     0.003281
   iter:   6  x=-53795.278953  g=    0.000003 f(x)=     0.000085
   iter:   7  x=-53795.299146  g=    0.000003 f(x)=     0.000000
   iter:   8  x=-53795.299146  g=    0.000003 f(x)=     0.000000
   iter:   9  x=-53795.299146  g=    0.000003 f(x)=     0.000000
   iter:  10  x=-53795.299146  g=    0.000003 f(x)=     0.000000
The output lambda is                    .... -53795.299146 (10 iterations)
The final length of the internal step   ....  0.300000000
Converting the step to cartesian space:
 Initial RMS(Int)=    0.3000000000
Transforming coordinates:
 Iter   0:  RMS(Cart)=    0.0577350269 RMS(Int)=    0.2000000000
 Iter   1:  RMS(Cart)=    0.0288675135 RMS(Int)=    0.1000000000
 Iter   2:  RMS(Cart)=    0.0000000000 RMS(Int)=    0.0000000000
done
Storing new coordinates                 .... done

                                .--------------------.
          ----------------------|Geometry convergence|-------------------------
          Item                value                   Tolerance       Converged
          ---------------------------------------------------------------------
          RMS gradient    18332.5164177611            0.0001000000      NO
          MAX gradient    18332.5164177611            0.0003000000      NO
          RMS step            0.3000000000            0.0020000000      NO
          MAX step            0.3000000000            0.0040000000      NO
          ........................................................
          Max(Bonds)      0.1588      Max(Angles)    0.00
          Max(Dihed)        0.00      Max(Improp)    0.00
          ---------------------------------------------------------------------

The optimization has not yet converged - more geometry cycles are needed


    ---------------------------------------------------------------------------
                         Redundant Internal Coordinates
                            (Angstroem and degrees)

        Definition                    Value    dE/dq     Step     New-Value
    ----------------------------------------------------------------------------
     1. B(Cu  1,Cu  0)                0.1000 -18332.516418  0.1588    0.2588   
    ----------------------------------------------------------------------------

         *************************************************************
         *                GEOMETRY OPTIMIZATION CYCLE   2            *
         *************************************************************
---------------------------------
CARTESIAN COORDINATES (ANGSTROEM)
---------------------------------
  Cu     0.000000    0.000000   -0.079377
  Cu     0.000000    0.000000    0.179377

----------------------------
CARTESIAN COORDINATES (A.U.)
----------------------------
  NO LB      ZA    FRAG     MASS         X           Y           Z
   0 Cu   29.0000    0    63.550    0.000000    0.000000   -0.150000
   1 Cu   29.0000    0    63.550    0.000000    0.000000    0.338973

--------------------------------
INTERNAL COORDINATES (ANGSTROEM)
--------------------------------
 Cu     0   0   0     0.000000000000     0.00000000     0.00000000
 Cu     1   0   0     0.258753162490     0.00000000     0.00000000

---------------------------
INTERNAL COORDINATES (A.U.)
---------------------------
 Cu     0   0   0     0.000000000000     0.00000000     0.00000000
 Cu     1   0   0     0.488972613392     0.00000000     0.00000000



           ************************************************************
           *        Program running with 8 parallel MPI-processes     *
           *              working on a common directory               *
           ************************************************************
------------------------------------------------------------------------------
                   ___                                                        
                  /   \      - P O W E R E D   B Y -                         
                 /     \                                                     
                 |  |  |   _    _      __       _____    __    __             
                 |  |  |  | |  | |    /  \     |  _  \  |  |  /  |          
                  \  \/   | |  | |   /    \    | | | |  |  | /  /          
                 / \  \   | |__| |  /  /\  \   | |_| |  |  |/  /          
                |  |  |   |  __  | /  /__\  \  |    /   |      \           
                |  |  |   | |  | | |   __   |  |    \   |  |\   \          
                \     /   | |  | | |  |  |  |  | |\  \  |  | \   \       
                 \___/    |_|  |_| |__|  |__|  |_| \__\ |__|  \__/        
                                                                              
                      - O R C A' S   B I G   F R I E N D -                    
                                      &                                       
                       - I N T E G R A L  F E E D E R -                       
                                                                              
 v1 FN, 2020, v2 2021                                                         
------------------------------------------------------------------------------


Reading SHARK input file cu2.SHARKINP.tmp ... ok
----------------------
SHARK INTEGRAL PACKAGE
----------------------

Number of atoms                             ...      2
Number of basis functions                   ...     90
Number of shells                            ...     30
Maximum angular momentum                    ...      3
Integral batch strategy                     ... SHARK/LIBINT Hybrid
RI-J (if used) integral strategy            ... SPLIT-RIJ (Revised 2003 algorithm where possible)
Printlevel                                  ...      1
Contraction scheme used                     ... SEGMENTED contraction
Coulomb Range Separation                    ... NOT USED
Exchange Range Separation                   ... NOT USED
Finite Nucleus Model                        ... NOT USED
Auxiliary Coulomb fitting basis             ... AVAILABLE
   # of basis functions in Aux-J            ...    182
   # of shells in Aux-J                     ...     46
   Maximum angular momentum in Aux-J        ...      4
Auxiliary J/K fitting basis                 ... NOT available
Auxiliary Correlation fitting basis         ... NOT available
Auxiliary 'external' fitting basis          ... NOT available
Integral threshold                          ...     2.500000e-11
Primitive cut-off                           ...     2.500000e-12
Primitive pair pre-selection threshold      ...     2.500000e-12

Calculating pre-screening integrals         ... done (  0.0 sec) Dimension = 30
Organizing shell pair data                  ... done (  0.0 sec)
Shell pair information
Total number of shell pairs                 ...       465
Shell pairs after pre-screening             ...       465
Total number of primitive shell pairs       ...      2746
Primitive shell pairs kept                  ...      2647
          la=0 lb=0:     78 shell pairs
          la=1 lb=0:     96 shell pairs
          la=1 lb=1:     36 shell pairs
          la=2 lb=0:     96 shell pairs
          la=2 lb=1:     64 shell pairs
          la=2 lb=2:     36 shell pairs
          la=3 lb=0:     24 shell pairs
          la=3 lb=1:     16 shell pairs
          la=3 lb=2:     16 shell pairs
          la=3 lb=3:      3 shell pairs

Calculating one electron integrals          ... done (  0.0 sec)
Calculating RI/J V-Matrix + Cholesky decomp.... done (  0.0 sec)
Calculating Nuclear repulsion               ... done (  0.0 sec) ENN=   1719.932726223199 Eh

SHARK setup successfully completed in   0.1 seconds

Maximum memory used throughout the entire GTOINT-calculation: 17.2 MB


           ************************************************************
           *        Program running with 8 parallel MPI-processes     *
           *              working on a common directory               *
           ************************************************************

Diagonalization of the overlap matrix:
Smallest eigenvalue                        ... 1.228e-04
Time for diagonalization                   ...    0.002 sec
Threshold for overlap eigenvalues          ... 1.000e-08
Number of eigenvalues below threshold      ... 0
Time for construction of square roots      ...    0.001 sec
Total time needed                          ...    0.003 sec

-------------------
DFT GRID GENERATION
-------------------

General Integration Accuracy     IntAcc      ... 4.388
Radial Grid Type                 RadialGrid  ... OptM3 with GC (2021)
Angular Grid (max. ang.)         AngularGrid ... 4 (Lebedev-302)
Angular grid pruning method      GridPruning ... 4 (adaptive)
Weight generation scheme         WeightScheme... Becke
Basis function cutoff            BFCut       ... 1.0000e-11
Integration weight cutoff        WCut        ... 1.0000e-14
Angular grids for H and He will be reduced by one unit
Partially contracted basis set               ... off
Rotationally invariant grid construction     ... off

Total number of grid points                  ...    22462
Total number of batches                      ...      352
Average number of points per batch           ...       63
Average number of grid points per atom       ...    11231
Time for grid setup =    0.209 sec

--------------
SCF ITERATIONS
--------------
ITER       Energy         Delta-E        Max-DP      RMS-DP      [F,P]     Damp
               ***  Starting incremental Fock matrix formation  ***
  0  -2773.5563363470   0.000000000000325.54303026  6.97474933 24.7441633 0.7000
  1  -2835.9322880894 -62.375951742424219.19360242  4.71667152 17.1179849 0.7000
  2  -2874.8431034717 -38.910815382330157.31871043  3.35665811 11.8855864 0.7000
  3  -2900.5550972858 -25.711993814010113.65368532  2.41269052  8.2736879 0.7000
  4  -2918.1318933441 -17.57679605834080.39157817  1.70537977  5.7694560 0.7000
  5  -2930.3080851853 -12.17619184118455.98366917  1.18804031  4.0279547 0.7000
  6  -2938.7872112743  -8.47912608902538.76261256  0.82246331  2.8143906 0.7000
  7  -2944.7076723878  -5.92046111345926.80095151  0.56845513  1.9675429 0.7000
  8  -2948.8471046903  -4.13943230256618.54568988  0.39329660  1.3760346 0.7000
  9  -2951.7429741263  -2.89586943592412.86038400  0.27275337  0.9626061 0.7000
 10  -2953.7693880794  -2.026413953151 8.93875203  0.18961407  0.6735141 0.7000
 11  -2955.1875756054  -1.418187526021 6.22465269  0.13205401  0.4713020 0.7000
                               ***Turning on DIIS***
 12  -2956.1801702810  -0.992594675565 4.33995863  0.09206372  0.3298296 0.7000
 13  -2956.8749237346  -0.694753453587 3.01567284  0.06393687  0.2308373 0.7000
 14  -2957.3612218728  -0.486298138173 2.10391823  0.04456887  0.1615684 0.7000
 15  -2957.7016173100  -0.340395437279 1.47057534  0.03113605  0.1130900 0.7000
 16  -2957.9398878776  -0.238270567615 3.42910787  0.07258020  0.0791593 0.0000
 17  -2958.4958329918  -0.555945114199 0.18633684  0.01464736  0.0000181 0.0000
 18  -2958.4697633496   0.026069642223 0.00025377  0.00000624  0.0755904 0.0000
 19  -2958.4697732662  -0.000009916549 0.00003888  0.00000179  0.0755788 0.0000
               *** Restarting incremental Fock matrix formation ***
                                   *** Resetting DIIS ***
 20  -2958.4697756757  -0.000002409527 1.82854469  0.04894034  0.0755761 0.0000
 21  -2958.5032965171  -0.033520841437 0.24639236  0.01101469  0.0310703 0.0000
 22  -2958.5095095299  -0.006213012751 0.18923671  0.00520650  0.0101232 0.0000
 23  -2958.5100700655  -0.000560535577 0.20915790  0.00511089  0.0027847 0.0000
 24  -2958.5101200869  -0.000050021486 0.03727778  0.00110943  0.0017111 0.0000
 25  -2958.5101315850  -0.000011498059 0.25727528  0.01654137  0.0009431 0.0000

 WARNING: the maximum gradient error descreased on average only by a factor   0.9
          during the last 20 iterations

                      *** Initiating the TRAH-SCF procedure ***


TRAH GRID
---------

General Integration Accuracy     IntAcc      ... 3.467
Radial Grid Type                 RadialGrid  ... OptM3 with GC (2021)
Angular Grid (max. ang.)         AngularGrid ... 1 (Lebedev-50)
Angular grid pruning method      GridPruning ... 4 (adaptive)
Weight generation scheme         WeightScheme... Becke
Basis function cutoff            BFCut       ... 1.0000e-11
Integration weight cutoff        WCut        ... 1.0000e-14
Angular grids for H and He will be reduced by one unit
Partially contracted basis set               ... off
Rotationally invariant grid construction     ... off

Total number of grid points                  ...     8650
Total number of batches                      ...      136
Average number of points per batch           ...       63
Average number of grid points per atom       ...     4325

 --------------------------------------------------------------------------------------------
   Iter.        energy            ||Error||_2        Shift      TRadius  Mac/Mic        Rej.
 --------------------------------------------------------------------------------------------
WARNING: 2 diagonal Hessian elements are negative!
    0      -2958.436453946149     1.026215e+00                     0.400 (TRAH MAcro)   No
WARNING : negative HOMO - LUMO gap : -0.133141
    0     dE    -2.345630e-02     1.673039e+00    -4.6815e-02      0.046 (TRAH MIcro)
    0     dE    -6.093130e-02     2.134371e-01    -1.1831e-01      0.173 (TRAH MIcro)
    0     dE    -6.309510e-02     6.500983e-02    -1.2223e-01      0.180 (TRAH MIcro)
    0     dE    -6.313004e-02     9.080132e-03    -1.2232e-01      0.179 (TRAH MIcro)
WARNING: 1 diagonal Hessian elements are negative!
    1      -2958.495310108485     5.862459e-02                     0.480 (TRAH MAcro)   No
WARNING : negative HOMO - LUMO gap : -0.061205
    1     dE    -5.286827e-05     3.218308e-01    -1.0574e-04      0.002 (TRAH MIcro)
    1     dE    -4.569580e-04     4.218520e-02    -9.1361e-04      0.018 (TRAH MIcro)
    1     dE    -5.173658e-04     1.698164e-02    -1.0342e-03      0.022 (TRAH MIcro)
    1     dE    -5.194546e-04     8.858484e-03    -1.0384e-03      0.022 (TRAH MIcro)
    1     dE    -5.201872e-04     1.219082e-02    -1.0399e-03      0.022 (TRAH MIcro)
    1     dE    -5.261763e-04     1.210811e-02    -2.5718e-01      0.022 (TRAH MIcro)
    1     dE    -5.408496e-04     1.839786e-03    -2.5828e-01      0.024 (TRAH MIcro)
WARNING: 1 diagonal Hessian elements are negative!
    2      -2958.495855619854     7.008236e-03                     0.576 (TRAH MAcro)   No
WARNING : negative HOMO - LUMO gap : -0.063747
    2     dE    -1.480515e-06     5.512356e-02    -2.9610e-06      0.001 (TRAH MIcro)
    2     dE    -2.770569e-05     5.103422e-02    -5.5407e-05      0.009 (TRAH MIcro)
    2     dE    -1.342330e-02     1.016490e+00    -7.2755e-02      0.576 (TRAH MIcro)
    2     dE    -3.983146e-02     3.005085e-01    -2.3336e-01      0.576 (TRAH MIcro)
    2     dE    -4.059401e-02     2.723648e-02    -2.3803e-01      0.576 (TRAH MIcro)
    2     dE    -4.060772e-02     1.972432e-02    -2.3811e-01      0.576 (TRAH MIcro)
    2     dE    -4.061064e-02     6.149067e-04    -2.3813e-01      0.576 (TRAH MIcro)
WARNING: 1 diagonal Hessian elements are negative!
    3      -2958.518961661674     2.654946e-01                     0.576 (TRAH MAcro)   No
WARNING : negative HOMO - LUMO gap : -0.012252
    3     dE    -1.561475e-03     5.437867e-01    -3.1225e-03      0.012 (TRAH MIcro)
    3     dE    -5.492193e-03     4.637849e-01    -1.0936e-02      0.067 (TRAH MIcro)
    3     dE    -9.213802e-03     3.001210e-01    -1.7848e-02      0.180 (TRAH MIcro)
    3     dE    -1.255637e-02     8.675287e-02    -2.3024e-02      0.301 (TRAH MIcro)
    3     dE    -1.270030e-02     9.194524e-03    -2.3218e-02      0.307 (TRAH MIcro)
WARNING: 2 diagonal Hessian elements are negative!
    4      -2958.530325979169     4.967876e-02                     0.691 (TRAH MAcro)   No
WARNING : negative HOMO - LUMO gap : -0.005893
    4     dE    -4.885169e-05     1.053210e-01    -9.7703e-05      0.002 (TRAH MIcro)
    4     dE    -1.753782e-04     1.815346e-02    -3.5071e-04      0.012 (TRAH MIcro)
    4     dE    -1.949054e-04     1.069374e-02    -3.8971e-04      0.016 (TRAH MIcro)
    4     dE    -2.190121e-04     1.110211e-02    -4.3777e-04      0.024 (TRAH MIcro)
    4     dE    -2.240079e-04     4.117702e-03    -4.4769e-04      0.027 (TRAH MIcro)
WARNING: 2 diagonal Hessian elements are negative!
    5      -2958.530550670648     4.163759e-03                     0.829 (TRAH MAcro)   No
WARNING : negative HOMO - LUMO gap : -0.005233
    5     dE    -1.299167e-08     3.655518e-03    -2.6782e-08      0.000 (TRAH MIcro)
    5     dE    -1.910410e-07     1.230321e-03    -3.8208e-07      0.000 (TRAH MIcro)
    5     dE    -2.205188e-07     4.554475e-04    -4.4104e-07      0.000 (TRAH MIcro)
    5     dE    -2.230733e-07     2.121215e-04    -4.4615e-07      0.000 (TRAH MIcro)
WARNING: 2 diagonal Hessian elements are negative!
    6      -2958.530550893731     2.120883e-04                           (NR   MAcro)
WARNING : negative HOMO - LUMO gap : -0.005243
    6     dE    -6.101240e-10     9.376956e-05                           (NR   MIcro)
    6     dE    -1.170380e-09     2.423615e-04                           (NR   MIcro)
    6     dE    -1.491870e-09     1.301813e-04                           (NR   MIcro)
    6     dE    -1.517848e-09     2.957039e-05                           (NR   MIcro)
    6     dE    -1.520321e-09     6.939800e-06                           (NR   MIcro)
    6     dE    -1.520447e-09     1.041813e-06                           (NR   MIcro)
    6     dE    -1.520454e-09     1.824652e-07                           (NR   MIcro)
WARNING: 2 diagonal Hessian elements are negative!
    7      -2958.530550895254     2.200020e-07                           (NR   MAcro)
WARNING : negative HOMO - LUMO gap : -0.005241

               *****************************************************
               *                     SUCCESS                       *
               *           SCF CONVERGED AFTER  73 CYCLES          *
               *****************************************************

Total Energy       :        -2958.53055090 Eh          -80505.70912 eV
  Last Energy change         ...   -1.5229e-09  Tolerance :   1.0000e-08
  Last Orbital Gradient      ...    2.2000e-07  Tolerance :   1.0000e-05
  Last Orbital Rotation      ...    1.1459e-04

================================================================================
                                        WARNING
Check your MOs and check whether a frozen core calculation is appropriate
MO 2 should be a Cu p core orbital but seems to be delocalized with a Cu s orbital (57.2% vs. 39.0%)
================================================================================
================================================================================
                                        WARNING
Check your MOs and check whether a frozen core calculation is appropriate
MO 3 should be a Cu p core orbital but seems to be delocalized with a Cu d orbital (89.9% vs.  8.3%)
================================================================================
================================================================================
                                        WARNING
Check your MOs and check whether a frozen core calculation is appropriate
MO 4 should be a Cu p core orbital but seems to be delocalized with a Cu d orbital (89.9% vs.  8.3%)
================================================================================
================================================================================
                                        WARNING
Check your MOs and check whether a frozen core calculation is appropriate
MO 6 should be a Cu p core orbital but seems to be delocalized with a Cu s orbital (51.2% vs. 48.9%)
================================================================================
             **** THE GBW FILE WAS UPDATED (cu2.gbw) ****
             **** DENSITY cu2.scfp WAS UPDATED ****
             **** ENERGY FILE WAS UPDATED (cu2.en.tmp) ****
             **** THE GBW FILE WAS UPDATED (cu2.gbw) ****
             **** DENSITY cu2.scfp WAS UPDATED ****
Total SCF time: 0 days 0 hours 0 min 2 sec 

Maximum memory used throughout the entire SCF-calculation: 10.1 MB


-------------------------------------------------------------------------------
                          DFT DISPERSION CORRECTION                            
                                                                               
                              DFTD3 V3.1  Rev 1                                
                          USING Becke-Johnson damping                          
-------------------------------------------------------------------------------
-------------------------   ----------------
Dispersion correction           -0.001030199
-------------------------   ----------------


-------------------------   --------------------
FINAL SINGLE POINT ENERGY     -2958.531581094032
-------------------------   --------------------



           ************************************************************
           *        Program running with 8 parallel MPI-processes     *
           *              working on a common directory               *
           ************************************************************
------------------------------------------------------------------------------
                         ORCA SCF GRADIENT CALCULATION
------------------------------------------------------------------------------

Gradient of the Kohn-Sham DFT energy:
Kohn-Sham wavefunction type      ... RKS
Hartree-Fock exchange scaling    ...    0.000
Number of operators              ...    1
Number of atoms                  ...    2
Basis set dimensions             ...   90
Integral neglect threshold       ... 2.5e-11
Integral primitive cutoff        ... 2.5e-12
SHARK Integral package           ... ON

Nuc. rep. gradient       (SHARK) ... done (  0.0 sec)
HCore & Overlap gradient (SHARK) ... done (  0.0 sec)
RI-J gradient            (SHARK) ... done (  0.2 sec)
Exchange-correlation gradient    ... done
Dispersion correction            ... done

------------------
CARTESIAN GRADIENT
------------------

   1   Cu  :    0.000000004   -0.000000005 1547.765993339
   2   Cu  :   -0.000000004    0.000000005 -1547.765993339

Difference to translation invariance:
           :    0.0000000000    0.0000000000   -0.0000000000

Difference to rotation invariance:
           :   -0.0000000026   -0.0000000020    0.0000000000

Norm of the cartesian gradient     ... 2188.8716591604
RMS gradient                       ...  893.6031128970
MAX gradient                       ... 1547.7659933394

-------
TIMINGS
-------

Total SCF gradient time            ...        0.362 sec

One electron gradient       ....       0.005 sec  (  1.5%)
RI-J Coulomb gradient       ....       0.197 sec  ( 54.3%)
XC gradient                 ....       0.065 sec  ( 17.9%)

Maximum memory used throughout the entire SCFGRAD-calculation: 27.6 MB
------------------------------------------------------------------------------
                         ORCA GEOMETRY RELAXATION STEP
------------------------------------------------------------------------------

Reading the OPT-File                    .... done
Getting information on internals        .... done
Copying old internal coords+grads       .... done
Making the new internal coordinates     .... (new redundants).... done
Validating the new internal coordinates .... (new redundants).... done
Calculating the B-matrix                .... done
Calculating the G,G- and P matrices     .... done
Transforming gradient to internals      .... done
Projecting the internal gradient        .... done
Number of atoms                         ....   2
Number of internal coordinates          ....   1
Current Energy                          .... -2958.531581094 Eh
Current gradient norm                   ....  2188.871659160 Eh/bohr
Maximum allowed component of the step   ....  0.300
Current trust radius                    ....  0.300
Updating the Hessian (BFGS)             .... done
Forming the augmented Hessian           .... done
Diagonalizing the augmented Hessian     .... done
Last element of RFO vector              ....  0.999618161
Lowest eigenvalues of augmented Hessian:
 -42.784354999
Length of the computed step             ....  0.027642651
The final length of the internal step   ....  0.027642651
Converting the step to cartesian space:
 Initial RMS(Int)=    0.0276426509
Transforming coordinates:
 Iter   0:  RMS(Cart)=    0.0079797460 RMS(Int)=    0.0276426509
 Iter   1:  RMS(Cart)=    0.0000000000 RMS(Int)=    0.0000000000
done
Storing new coordinates                 .... done

                                .--------------------.
          ----------------------|Geometry convergence|-------------------------
          Item                value                   Tolerance       Converged
          ---------------------------------------------------------------------
          Energy change   -1794.6563933935            0.0000050000      NO
          RMS gradient     1547.7659933394            0.0001000000      NO
          MAX gradient     1547.7659933394            0.0003000000      NO
          RMS step            0.0276426509            0.0020000000      NO
          MAX step            0.0276426509            0.0040000000      NO
          ........................................................
          Max(Bonds)      0.0146      Max(Angles)    0.00
          Max(Dihed)        0.00      Max(Improp)    0.00
          ---------------------------------------------------------------------

The optimization has not yet converged - more geometry cycles are needed


    ---------------------------------------------------------------------------
                         Redundant Internal Coordinates
                            (Angstroem and degrees)

        Definition                    Value    dE/dq     Step     New-Value
    ----------------------------------------------------------------------------
     1. B(Cu  1,Cu  0)                0.2588 -1547.765993  0.0146    0.2734   
    ----------------------------------------------------------------------------

         *************************************************************
         *                GEOMETRY OPTIMIZATION CYCLE   3            *
         *************************************************************
---------------------------------
CARTESIAN COORDINATES (ANGSTROEM)
---------------------------------
  Cu     0.000000    0.000000   -0.086691
  Cu     0.000000    0.000000    0.186691

----------------------------
CARTESIAN COORDINATES (A.U.)
----------------------------
  NO LB      ZA    FRAG     MASS         X           Y           Z
   0 Cu   29.0000    0    63.550    0.000000    0.000000   -0.163821
   1 Cu   29.0000    0    63.550    0.000000    0.000000    0.352794

--------------------------------
INTERNAL COORDINATES (ANGSTROEM)
--------------------------------
 Cu     0   0   0     0.000000000000     0.00000000     0.00000000
 Cu     1   0   0     0.273381023313     0.00000000     0.00000000

---------------------------
INTERNAL COORDINATES (A.U.)
---------------------------
 Cu     0   0   0     0.000000000000     0.00000000     0.00000000
 Cu     1   0   0     0.516615264273     0.00000000     0.00000000



           ************************************************************
           *        Program running with 8 parallel MPI-processes     *
           *              working on a common directory               *
           ************************************************************
------------------------------------------------------------------------------
                   ___                                                        
                  /   \      - P O W E R E D   B Y -                         
                 /     \                                                     
                 |  |  |   _    _      __       _____    __    __             
                 |  |  |  | |  | |    /  \     |  _  \  |  |  /  |          
                  \  \/   | |  | |   /    \    | | | |  |  | /  /          
                 / \  \   | |__| |  /  /\  \   | |_| |  |  |/  /          
                |  |  |   |  __  | /  /__\  \  |    /   |      \           
                |  |  |   | |  | | |   __   |  |    \   |  |\   \          
                \     /   | |  | | |  |  |  |  | |\  \  |  | \   \       
                 \___/    |_|  |_| |__|  |__|  |_| \__\ |__|  \__/        
                                                                              
                      - O R C A' S   B I G   F R I E N D -                    
                                      &                                       
                       - I N T E G R A L  F E E D E R -                       
                                                                              
 v1 FN, 2020, v2 2021                                                         
------------------------------------------------------------------------------


Reading SHARK input file cu2.SHARKINP.tmp ... ok
----------------------
SHARK INTEGRAL PACKAGE
----------------------

Number of atoms                             ...      2
Number of basis functions                   ...     90
Number of shells                            ...     30
Maximum angular momentum                    ...      3
Integral batch strategy                     ... SHARK/LIBINT Hybrid
RI-J (if used) integral strategy            ... SPLIT-RIJ (Revised 2003 algorithm where possible)
Printlevel                                  ...      1
Contraction scheme used                     ... SEGMENTED contraction
Coulomb Range Separation                    ... NOT USED
Exchange Range Separation                   ... NOT USED
Finite Nucleus Model                        ... NOT USED
Auxiliary Coulomb fitting basis             ... AVAILABLE
   # of basis functions in Aux-J            ...    182
   # of shells in Aux-J                     ...     46
   Maximum angular momentum in Aux-J        ...      4
Auxiliary J/K fitting basis                 ... NOT available
Auxiliary Correlation fitting basis         ... NOT available
Auxiliary 'external' fitting basis          ... NOT available
Integral threshold                          ...     2.500000e-11
Primitive cut-off                           ...     2.500000e-12
Primitive pair pre-selection threshold      ...     2.500000e-12

Calculating pre-screening integrals         ... done (  0.1 sec) Dimension = 30
Organizing shell pair data                  ... done (  0.0 sec)
Shell pair information
Total number of shell pairs                 ...       465
Shell pairs after pre-screening             ...       465
Total number of primitive shell pairs       ...      2746
Primitive shell pairs kept                  ...      2633
          la=0 lb=0:     78 shell pairs
          la=1 lb=0:     96 shell pairs
          la=1 lb=1:     36 shell pairs
          la=2 lb=0:     96 shell pairs
          la=2 lb=1:     64 shell pairs
          la=2 lb=2:     36 shell pairs
          la=3 lb=0:     24 shell pairs
          la=3 lb=1:     16 shell pairs
          la=3 lb=2:     16 shell pairs
          la=3 lb=3:      3 shell pairs

Calculating one electron integrals          ... done (  0.0 sec)
Calculating RI/J V-Matrix + Cholesky decomp.... done (  0.0 sec)
Calculating Nuclear repulsion               ... done (  0.0 sec) ENN=   1627.903893206580 Eh

SHARK setup successfully completed in   0.1 seconds

Maximum memory used throughout the entire GTOINT-calculation: 17.2 MB


           ************************************************************
           *        Program running with 8 parallel MPI-processes     *
           *              working on a common directory               *
           ************************************************************

Diagonalization of the overlap matrix:
Smallest eigenvalue                        ... 1.357e-04
Time for diagonalization                   ...    0.001 sec
Threshold for overlap eigenvalues          ... 1.000e-08
Number of eigenvalues below threshold      ... 0
Time for construction of square roots      ...    0.002 sec
Total time needed                          ...    0.003 sec

-------------------
DFT GRID GENERATION
-------------------

General Integration Accuracy     IntAcc      ... 4.388
Radial Grid Type                 RadialGrid  ... OptM3 with GC (2021)
Angular Grid (max. ang.)         AngularGrid ... 4 (Lebedev-302)
Angular grid pruning method      GridPruning ... 4 (adaptive)
Weight generation scheme         WeightScheme... Becke
Basis function cutoff            BFCut       ... 1.0000e-11
Integration weight cutoff        WCut        ... 1.0000e-14
Angular grids for H and He will be reduced by one unit
Partially contracted basis set               ... off
Rotationally invariant grid construction     ... off

Total number of grid points                  ...    22462
Total number of batches                      ...      352
Average number of points per batch           ...       63
Average number of grid points per atom       ...    11231
Time for grid setup =    0.240 sec

--------------
SCF ITERATIONS
--------------
ITER       Energy         Delta-E        Max-DP      RMS-DP      [F,P]     Damp
               ***  Starting incremental Fock matrix formation  ***
  0  -2997.5647258731   0.000000000000 1.02878128  0.02545819  0.3699133 0.7000
  1  -2997.6173846115  -0.052658738401 0.86308471  0.02093051  0.2580318 0.7000
                               ***Turning on DIIS***
  2  -2997.6537850602  -0.036400448756 0.59536017  0.01474366  0.1798263 0.7000
  3  -2997.6790875236  -0.025302463402 0.33605987  0.00939387  0.1254469 0.7000
  4  -2997.6967399109  -0.017652387264 0.69113707  0.02123750  0.0878109 0.0000
  5  -2997.7378223806  -0.041082469682 0.20653772  0.01307847  0.0008437 0.0000
  6  -2997.7341477438   0.003674636744 0.00008082  0.00000473  0.0508388 0.0000
  7  -2997.7341541343  -0.000006390484 0.00012347  0.00000327  0.0507850 0.0000
  8  -2997.7341557763  -0.000001641925 0.00004741  0.00000130  0.0507800 0.0000
  9  -2997.7341565669  -0.000000790615 0.00001696  0.00000055  0.0507787 0.0000
 10  -2997.7341571264  -0.000000559514 0.09072604  0.00532372  0.0507780 0.0000
 11  -2997.7373774614  -0.003220335034 0.09611915  0.00361487  0.0099863 0.0000
 12  -2997.7376563450  -0.000278883550 0.01064282  0.00065319  0.0033724 0.0000
 13  -2997.7377479281  -0.000091583080 0.01383413  0.00055397  0.0017307 0.0000
 14  -2997.7377859693  -0.000038041211 0.01127872  0.00043127  0.0015561 0.0000
 15  -2997.7378035724  -0.000017603130 0.00402364  0.00014387  0.0015554 0.0000
 16  -2997.7378203836  -0.000016811177 0.01083324  0.00036713  0.0011891 0.0000
 17  -2997.7378188385   0.000001545071 0.00299144  0.00009716  0.0014844 0.0000
 18  -2997.7378268760  -0.000008037466 0.00400979  0.00011079  0.0011944 0.0000
 19  -2997.7378333286  -0.000006452641 0.00318673  0.00011925  0.0010293 0.0000
               *** Restarting incremental Fock matrix formation ***
                                   *** Resetting DIIS ***
 20  -2997.7378357021  -0.000002373452 0.00461528  0.00022992  0.0010290 0.0000
 21  -2997.7378437580  -0.000008055983 0.20777801  0.01322758  0.0005948 0.0000

 WARNING: the maximum gradient error descreased on average only by a factor   0.9
[...]
   2   2.0000     -38.250277     -1040.8430 
   3   2.0000     -38.250246     -1040.8421 
   4   2.0000     -33.541499      -912.7106 
   5   2.0000     -33.541498      -912.7106 
   6   2.0000     -33.541241      -912.7036 
   7   2.0000     -33.541241      -912.7036 
   8   2.0000     -33.541229      -912.7032 
   9   2.0000     -33.541229      -912.7032 
  10   2.0000      -4.081708      -111.0689 
  11   2.0000      -4.081205      -111.0552 
  12   2.0000      -2.621979       -71.3477 
  13   2.0000      -2.617836       -71.2349 
  14   2.0000      -2.615393       -71.1685 
  15   2.0000      -2.615393       -71.1685 
  16   2.0000      -2.615004       -71.1579 
  17   2.0000      -2.615004       -71.1579 
  18   2.0000      -0.234319        -6.3761 
  19   2.0000      -0.210236        -5.7208 
  20   2.0000      -0.210236        -5.7208 
  21   2.0000      -0.192714        -5.2440 
  22   2.0000      -0.192708        -5.2438 
  23   2.0000      -0.187668        -5.1067 
  24   2.0000      -0.185236        -5.0405 
  25   2.0000      -0.185229        -5.0403 
  26   2.0000      -0.179159        -4.8752 
  27   2.0000      -0.179159        -4.8752 
  28   2.0000      -0.177633        -4.8336 
  29   0.0000      -0.112161        -3.0521 
  30   0.0000      -0.003733        -0.1016 
  31   0.0000       0.019011         0.5173 
  32   0.0000       0.019011         0.5173 
  33   0.0000       0.064270         1.7489 
  34   0.0000       0.064270         1.7489 
  35   0.0000       0.087842         2.3903 
  36   0.0000       0.099115         2.6971 
  37   0.0000       0.149382         4.0649 
  38   0.0000       0.149382         4.0649 
  39   0.0000       0.182228         4.9587 
  40   0.0000       0.211324         5.7504 
  41   0.0000       0.211324         5.7504 
  42   0.0000       0.218536         5.9467 
  43   0.0000       0.223249         6.0749 
  44   0.0000       0.223249         6.0749 
  45   0.0000       0.307372         8.3640 
  46   0.0000       0.307372         8.3640 
  47   0.0000       0.487588        13.2679 
  48   0.0000       0.767635        20.8884 
  49   0.0000       0.767635        20.8884 
  50   0.0000       0.825083        22.4517 
  51   0.0000       0.825084        22.4517 
  52   0.0000       0.852490        23.1974 
  53   0.0000       0.897878        24.4325 
  54   0.0000       0.897879        24.4325 
  55   0.0000       0.968158        26.3449 
  56   0.0000       0.968158        26.3449 
  57   0.0000       1.227651        33.4061 
  58   0.0000       1.988055        54.0977 
  59   0.0000       1.988055        54.0977 
  60   0.0000       2.153444        58.5982 
  61   0.0000       2.153444        58.5982 
  62   0.0000       2.154001        58.6133 
  63   0.0000       2.205982        60.0278 
  64   0.0000       2.859613        77.8140 
  65   0.0000       3.153155        85.8017 
  66   0.0000       3.537104        96.2495 
  67   0.0000       3.537160        96.2510 
  68   0.0000       3.568194        97.0955 
  69   0.0000       3.568194        97.0955 
  70   0.0000       3.575603        97.2971 
  71   0.0000       3.575603        97.2971 
  72   0.0000       3.584160        97.5300 
  73   0.0000       3.584216        97.5315 
  74   0.0000       3.606223        98.1303 
  75   0.0000       3.793953       103.2387 
  76   0.0000       5.667071       154.2089 
  77   0.0000       5.667083       154.2092 
  78   0.0000       5.667090       154.2093 
  79   0.0000       5.667100       154.2096 
  80   0.0000       5.668330       154.2431 
  81   0.0000       5.668330       154.2431 
  82   0.0000       5.668620       154.2510 
  83   0.0000       5.670193       154.2938 
  84   0.0000       5.670193       154.2938 
  85   0.0000       5.670194       154.2938 
  86   0.0000       5.670194       154.2938 
  87   0.0000       5.672024       154.3436 
  88   0.0000       5.672024       154.3436 
  89   0.0000       5.735444       156.0694 

                    ********************************
                    * MULLIKEN POPULATION ANALYSIS *
                    ********************************

-----------------------
MULLIKEN ATOMIC CHARGES
-----------------------
   0 Cu:    0.000000
   1 Cu:   -0.000000
Sum of atomic charges:   -0.0000000

--------------------------------
MULLIKEN REDUCED ORBITAL CHARGES
--------------------------------
  0 Cus       :     7.010174  s :     7.010174
      pz      :     4.020952  p :    12.044117
      px      :     4.011582
      py      :     4.011582
      dz2     :     1.968860  d :     9.945668
      dxz     :     1.988408
      dyz     :     1.988408
      dx2y2   :     1.999996
      dxy     :     1.999996
      f0      :     0.000013  f :     0.000041
      f+1     :     0.000010
      f-1     :     0.000010
      f+2     :     0.000004
      f-2     :     0.000004
      f+3     :     0.000000
      f-3     :     0.000000
  1 Cus       :     7.010174  s :     7.010174
      pz      :     4.020952  p :    12.044117
      px      :     4.011582
      py      :     4.011582
      dz2     :     1.968860  d :     9.945668
      dxz     :     1.988408
      dyz     :     1.988408
      dx2y2   :     1.999996
      dxy     :     1.999996
      f0      :     0.000013  f :     0.000041
      f+1     :     0.000010
      f-1     :     0.000010
      f+2     :     0.000004
      f-2     :     0.000004
      f+3     :     0.000000
      f-3     :     0.000000


                     *******************************
                     * LOEWDIN POPULATION ANALYSIS *
                     *******************************

----------------------
LOEWDIN ATOMIC CHARGES
----------------------
   0 Cu:    0.000000
   1 Cu:   -0.000000

-------------------------------
LOEWDIN REDUCED ORBITAL CHARGES
-------------------------------
  0 Cus       :     6.948076  s :     6.948076
      pz      :     4.039141  p :    12.061599
      px      :     4.011229
      py      :     4.011229
      dz2     :     2.012763  d :     9.990268
      dxz     :     1.988756
      dyz     :     1.988756
      dx2y2   :     1.999996
      dxy     :     1.999996
      f0      :     0.000020  f :     0.000056
      f+1     :     0.000014
      f-1     :     0.000014
      f+2     :     0.000004
      f-2     :     0.000004
      f+3     :     0.000000
      f-3     :     0.000000
  1 Cus       :     6.948076  s :     6.948076
      pz      :     4.039141  p :    12.061599
      px      :     4.011229
      py      :     4.011229
      dz2     :     2.012763  d :     9.990268
      dxz     :     1.988756
      dyz     :     1.988756
      dx2y2   :     1.999996
      dxy     :     1.999996
      f0      :     0.000020  f :     0.000056
      f+1     :     0.000014
      f-1     :     0.000014
      f+2     :     0.000004
      f-2     :     0.000004
      f+3     :     0.000000
      f-3     :     0.000000


                      *****************************
                      * MAYER POPULATION ANALYSIS *
                      *****************************

  NA   - Mulliken gross atomic population
  ZA   - Total nuclear charge
  QA   - Mulliken gross atomic charge
  VA   - Mayer's total valence
  BVA  - Mayer's bonded valence
  FA   - Mayer's free valence

  ATOM       NA         ZA         QA         VA         BVA        FA
  0 Cu    29.0000    29.0000     0.0000     1.1223     1.1223     0.0000
  1 Cu    29.0000    29.0000    -0.0000     1.1223     1.1223     0.0000

  Mayer bond orders larger than 0.100000
B(  0-Cu,  1-Cu) :   1.1223 

-------
TIMINGS
-------

Total SCF time: 0 days 0 hours 0 min 0 sec 

Total time                  ....       0.402 sec
Sum of individual times     ....       0.318 sec  ( 79.0%)

Fock matrix formation       ....       0.056 sec  ( 14.0%)
  Split-RI-J                ....       0.022 sec  ( 38.7% of F)
  XC integration            ....       0.034 sec  ( 59.6% of F)
    Basis function eval.    ....       0.011 sec  ( 32.2% of XC)
    Density eval.           ....       0.006 sec  ( 19.3% of XC)
    XC-Functional eval.     ....       0.004 sec  ( 10.5% of XC)
    XC-Potential eval.      ....       0.006 sec  ( 19.3% of XC)
Diagonalization             ....       0.005 sec  (  1.1%)
Density matrix formation    ....       0.000 sec  (  0.1%)
Population analysis         ....       0.002 sec  (  0.5%)
Initial guess               ....       0.003 sec  (  0.7%)
Orbital Transformation      ....       0.000 sec  (  0.0%)
Orbital Orthonormalization  ....       0.001 sec  (  0.3%)
DIIS solution               ....       0.003 sec  (  0.6%)
Grid generation             ....       0.249 sec  ( 61.9%)

Maximum memory used throughout the entire SCF-calculation: 9.9 MB


-------------------------------------------------------------------------------
                          DFT DISPERSION CORRECTION                            
                                                                               
                              DFTD3 V3.1  Rev 1                                
                          USING Becke-Johnson damping                          
-------------------------------------------------------------------------------
The PBE functional is recognized
Active option DFTDOPT                   ...         4   

molecular C6(AA) [au] = 713.098677 


            DFT-D V3
 parameters
 s6 scaling factor         :     1.0000 
 a1 scaling factor         :     0.4289 
 s8 scaling factor         :     0.7875 
 a2 scaling factor         :     4.4407 
 ad hoc parameters k1-k3   :    16.0000     1.3333    -4.0000 

 Edisp/kcal,au: -0.642345950450  -0.001023643321 
 E6   /kcal   :  -0.330408399 
 E8   /kcal   :  -0.311937551 
 % E8         :  48.562235194 

-------------------------   ----------------
Dispersion correction           -0.001023643
-------------------------   ----------------


-------------------------   --------------------
FINAL SINGLE POINT ENERGY     -3280.566984674325
-------------------------   --------------------

                                *** OPTIMIZATION RUN DONE ***

                            ***************************************
                            *     ORCA property calculations      *
                            ***************************************

                                    ---------------------
                                    Active property flags
                                    ---------------------
   (+) Dipole Moment


------------------------------------------------------------------------------
                       ORCA ELECTRIC PROPERTIES CALCULATION
------------------------------------------------------------------------------

Dipole Moment Calculation                       ... on
Quadrupole Moment Calculation                   ... off
Polarizability Calculation                      ... off
GBWName                                         ... cu2.gbw
Electron density                                ... cu2.scfp
The origin for moment calculation is the CENTER OF MASS  = ( 0.000000,  0.000000  0.094486)

-------------
DIPOLE MOMENT
-------------
                                X             Y             Z
Electronic contribution:     -0.00000      -0.00000      -0.00000
Nuclear contribution   :      0.00000       0.00000       0.00000
                        -----------------------------------------
Total Dipole Moment    :     -0.00000      -0.00000      -0.00000
                        -----------------------------------------
Magnitude (a.u.)       :      0.00000
Magnitude (Debye)      :      0.00000



--------------------
Rotational spectrum 
--------------------
 
Rotational constants in cm-1:     0.000000     0.103221     0.103221 
Rotational constants in MHz :     0.000000  3094.490053  3094.490053 

 Dipole components along the rotational axes: 
x,y,z [a.u.] :    -0.000000    -0.000000    -0.000000 
x,y,z [Debye]:    -0.000000    -0.000000    -0.000000 

 
DisplAtoms
	  0         0     
	  1         1     


----------------------------------------------------------------------------
                           ORCA NUMERICAL FREQUENCIES
                              (8-process run)
----------------------------------------------------------------------------

Number of atoms                ... 2
Central differences            ... used
Number of displacements        ... 12
Numerical increment            ... 5.000e-03 bohr
IR-spectrum generation         ... on
Raman-spectrum generation      ... off
Surface Crossing Hessian       ... off

The output will be reduced. Please look at the following files:
SCF program output             ... >cu2.lastscf
Integral program output        ... >cu2.lastint
Gradient program output        ... >cu2.lastgrad
Dipole moment program output   ... >cu2.lastmom
AutoCI program output          ... >cu2.lastautoci

	<< Calculating on displaced geometry   3 (of  12) >>
	<< Calculating on displaced geometry   1 (of  12) >>
	<< Calculating on displaced geometry   8 (of  12) >>
	<< Calculating on displaced geometry   5 (of  12) >>
	<< Calculating on displaced geometry   7 (of  12) >>
	<< Calculating on displaced geometry   2 (of  12) >>
	<< Calculating on displaced geometry   6 (of  12) >>
	<< Calculating on displaced geometry   4 (of  12) >>
	<< Calculating on displaced geometry  12 (of  12) >>
	<< Calculating on displaced geometry  11 (of  12) >>
	<< Calculating on displaced geometry  10 (of  12) >>
	<< Calculating on displaced geometry   9 (of  12) >>
Warning: T+R mode no 5 is zero 

-----------------------
VIBRATIONAL FREQUENCIES
-----------------------

Scaling factor for frequencies =  1.000000000 (already applied!)

   0:         0.00 cm**-1
   1:         0.00 cm**-1
   2:         0.00 cm**-1
   3:         0.00 cm**-1
   4:         0.00 cm**-1
   5:       255.18 cm**-1


------------
NORMAL MODES
------------

These modes are the cartesian displacements weighted by the diagonal matrix
M(i,i)=1/sqrt(m[i]) where m[i] is the mass of the displaced atom
Thus, these vectors are normalized but *not* orthogonal

                  0          1          2          3          4          5    
      0       0.000000   0.000000   0.000000   0.000000   0.000000   0.000000
      1       0.000000   0.000000   0.000000   0.000000   0.000000   0.000000
      2       0.000000   0.000000   0.000000   0.000000   0.000000   0.707107
      3       0.000000   0.000000   0.000000   0.000000   0.000000   0.000000
      4       0.000000   0.000000   0.000000   0.000000   0.000000   0.000000
      5       0.000000   0.000000   0.000000   0.000000   0.000000  -0.707107


-----------
IR SPECTRUM
-----------

 Mode   freq       eps      Int      T**2         TX        TY        TZ
       cm**-1   L/(mol*cm) km/mol    a.u.
----------------------------------------------------------------------------
  5:    255.18   0.000000    0.00  0.000000  (-0.000000 -0.000000 -0.000000)

* The epsilon (eps) is given for a Dirac delta lineshape.
** The dipole moment derivative (T) already includes vibrational overlap.

The first frequency considered to be a vibration is 5
The total number of vibrations considered is 1


--------------------------
THERMOCHEMISTRY AT 298.15K
--------------------------

Temperature         ... 298.15 K
Pressure            ... 1.00 atm
Total Mass          ... 127.10 AMU
The molecule is recognized as being linear

Throughout the following assumptions are being made:
  (1) The electronic state is orbitally nondegenerate
  (2) There are no thermally accessible electronically excited states
  (3) Hindered rotations indicated by low frequency modes are not
      treated as such but are treated as vibrations and this may
      cause some error
  (4) All equations used are the standard statistical mechanics
      equations for an ideal gas
  (5) All vibrations are strictly harmonic

freq.     255.18  E(vib)   ...       0.30 

------------
INNER ENERGY
------------

The inner energy is: U= E(el) + E(ZPE) + E(vib) + E(rot) + E(trans)
    E(el)   - is the total energy from the electronic structure calculation
              = E(kin-el) + E(nuc-el) + E(el-el) + E(nuc-nuc)
    E(ZPE)  - the the zero temperature vibrational energy from the frequency calculation
    E(vib)  - the the finite temperature correction to E(ZPE) due to population
              of excited vibrational states
    E(rot)  - is the rotational thermal energy
    E(trans)- is the translational thermal energy

Summary of contributions to the inner energy U:
Electronic energy                ...  -3280.56698467 Eh
Zero point energy                ...      0.00058135 Eh       0.36 kcal/mol
Thermal vibrational correction   ...      0.00047926 Eh       0.30 kcal/mol
Thermal rotational correction    ...      0.00094418 Eh       0.59 kcal/mol
Thermal translational correction ...      0.00141627 Eh       0.89 kcal/mol
-----------------------------------------------------------------------
Total thermal energy                  -3280.56356361 Eh


Summary of corrections to the electronic energy:
(perhaps to be used in another calculation)
Total thermal correction                  0.00283972 Eh       1.78 kcal/mol
Non-thermal (ZPE) correction              0.00058135 Eh       0.36 kcal/mol
-----------------------------------------------------------------------
Total correction                          0.00342106 Eh       2.15 kcal/mol


--------
ENTHALPY
--------

The enthalpy is H = U + kB*T
                kB is Boltzmann's constant
Total free energy                 ...  -3280.56356361 Eh 
Thermal Enthalpy correction       ...      0.00094421 Eh       0.59 kcal/mol
-----------------------------------------------------------------------
Total Enthalpy                    ...  -3280.56261940 Eh


Note: Rotational entropy computed according to Herzberg 
Infrared and Raman Spectra, Chapter V,1, Van Nostrand Reinhold, 1945 
Point Group:  Dinfh, Symmetry Number:   2  
Rotational constants in cm-1:     0.000000     0.103221     0.103221 

Vibrational entropy computed according to the QRRHO of S. Grimme
Chem.Eur.J. 2012 18 9955


-------
ENTROPY
-------

The entropy contributions are T*S = T*(S(el)+S(vib)+S(rot)+S(trans))
     S(el)   - electronic entropy
     S(vib)  - vibrational entropy
     S(rot)  - rotational entropy
     S(trans)- translational entropy
The entropies will be listed as multiplied by the temperature to get
units of energy

Electronic entropy                ...      0.00000000 Eh      0.00 kcal/mol
Vibrational entropy               ...      0.00080765 Eh      0.51 kcal/mol
Rotational entropy                ...      0.00746993 Eh      4.69 kcal/mol
Translational entropy             ...      0.01921087 Eh     12.05 kcal/mol
-----------------------------------------------------------------------
Final entropy term                ...      0.02748845 Eh     17.25 kcal/mol


-------------------
GIBBS FREE ENERGY
-------------------

The Gibbs free energy is G = H - T*S

Total enthalpy                    ...  -3280.56261940 Eh 
Total entropy correction          ...     -0.02748845 Eh    -17.25 kcal/mol
-----------------------------------------------------------------------
Final Gibbs free energy         ...  -3280.59010785 Eh

For completeness - the Gibbs free energy minus the electronic energy
G-E(el)                           ...     -0.02312318 Eh    -14.51 kcal/mol



Timings for individual modules:

Sum of individual times         ...       74.687 sec (=   1.245 min)
GTO integral calculation        ...        7.592 sec (=   0.127 min)  10.2 %
SCF iterations                  ...       42.058 sec (=   0.701 min)  56.3 %
SCF Gradient evaluation         ...       11.944 sec (=   0.199 min)  16.0 %
Geometry relaxation             ...        0.132 sec (=   0.002 min)   0.2 %
Numerical frequency calculation ...       12.961 sec (=   0.216 min)  17.4 %
                             ****ORCA TERMINATED NORMALLY****
TOTAL RUN TIME: 0 days 0 hours 1 minutes 17 seconds 1 msec
