
                                 *****************
                                 * O   R   C   A *
                                 *****************

                                            #,                                       
                                            ###                                      
                                            ####                                     
                                            #####                                    
                                            ######                                   
                                           ########,                                 
                                     ,,################,,,,,                         
                               ,,#################################,,                 
                          ,,##########################################,,             
                       ,#########################################, ''#####,          
                    ,#############################################,,   '####,        
                  ,##################################################,,,,####,       
                ,###########''''           ''''###############################       
              ,#####''   ,,,,##########,,,,          '''####'''          '####       
            ,##' ,,,,###########################,,,                        '##       
           ' ,,###''''                  '''############,,,                           
         ,,##''                                '''############,,,,        ,,,,,,###''
      ,#''                                            '''#######################'''  
     '                                                          ''''####''''         
             ,#######,   #######,   ,#######,      ##                                
            ,#'     '#,  ##    ##  ,#'     '#,    #''#        ######   ,####,        
            ##       ##  ##   ,#'  ##            #'  '#       #        #'  '#        
            ##       ##  #######   ##           ,######,      #####,   #    #        
            '#,     ,#'  ##    ##  '#,     ,#' ,#      #,         ##   #,  ,#        
             '#######'   ##     ##  '#######'  #'      '#     #####' # '####'        



                  #######################################################
                  #                        -***-                        #
                  #          Department of theory and spectroscopy      #
                  #    Directorship and core code : Frank Neese         #
                  #        Max Planck Institute fuer Kohlenforschung    #
                  #                Kaiser Wilhelm Platz 1               #
                  #                 D-45470 Muelheim/Ruhr               #
                  #                      Germany                        #
                  #                                                     #
                  #                  All rights reserved                #
                  #                        -***-                        #
                  #######################################################


                         Program Version 5.0.1 -  RELEASE  -


 With contributions from (in alphabetic order):
   Daniel Aravena         : Magnetic Suceptibility
   Michael Atanasov       : Ab Initio Ligand Field Theory (pilot matlab implementation)
   Alexander A. Auer      : GIAO ZORA, VPT2 properties, NMR spectrum
   Ute Becker             : Parallelization
   Giovanni Bistoni       : ED, misc. LED, open-shell LED, HFLD
   Martin Brehm           : Molecular dynamics
   Dmytro Bykov           : SCF Hessian
   Vijay G. Chilkuri      : MRCI spin determinant printing, contributions to CSF-ICE
   Dipayan Datta          : RHF DLPNO-CCSD density
   Achintya Kumar Dutta   : EOM-CC, STEOM-CC
   Dmitry Ganyushin       : Spin-Orbit,Spin-Spin,Magnetic field MRCI
   Miquel Garcia          : C-PCM and meta-GGA Hessian, CC/C-PCM, Gaussian charge scheme
   Yang Guo               : DLPNO-NEVPT2, F12-NEVPT2, CIM, IAO-localization
   Andreas Hansen         : Spin unrestricted coupled pair/coupled cluster methods
   Benjamin Helmich-Paris : MC-RPA, TRAH-SCF, COSX integrals
   Lee Huntington         : MR-EOM, pCC
   Robert Izsak           : Overlap fitted RIJCOSX, COSX-SCS-MP3, EOM
   Marcus Kettner         : VPT2
   Christian Kollmar      : KDIIS, OOCD, Brueckner-CCSD(T), CCSD density, CASPT2, CASPT2-K
   Simone Kossmann        : Meta GGA functionals, TD-DFT gradient, OOMP2, MP2 Hessian
   Martin Krupicka        : Initial AUTO-CI
   Lucas Lang             : DCDCAS
   Marvin Lechner         : AUTO-CI (C++ implementation), FIC-MRCC
   Dagmar Lenk            : GEPOL surface, SMD
   Dimitrios Liakos       : Extrapolation schemes; Compound Job, initial MDCI parallelization
   Dimitrios Manganas     : Further ROCIS development; embedding schemes
   Dimitrios Pantazis     : SARC Basis sets
   Anastasios Papadopoulos: AUTO-CI, single reference methods and gradients
   Taras Petrenko         : DFT Hessian,TD-DFT gradient, ASA, ECA, R-Raman, ABS, FL, XAS/XES, NRVS
   Peter Pinski           : DLPNO-MP2, DLPNO-MP2 Gradient
   Christoph Reimann      : Effective Core Potentials
   Marius Retegan         : Local ZFS, SOC
   Christoph Riplinger    : Optimizer, TS searches, QM/MM, DLPNO-CCSD(T), (RO)-DLPNO pert. Triples
   Tobias Risthaus        : Range-separated hybrids, TD-DFT gradient, RPA, STAB
   Michael Roemelt        : Original ROCIS implementation
   Masaaki Saitow         : Open-shell DLPNO-CCSD energy and density
   Barbara Sandhoefer     : DKH picture change effects
   Avijit Sen             : IP-ROCIS
   Kantharuban Sivalingam : CASSCF convergence, NEVPT2, FIC-MRCI
   Bernardo de Souza      : ESD, SOC TD-DFT
   Georgi Stoychev        : AutoAux, RI-MP2 NMR, DLPNO-MP2 response
   Willem Van den Heuvel  : Paramagnetic NMR
   Boris Wezisla          : Elementary symmetry handling
   Frank Wennmohs         : Technical directorship


 We gratefully acknowledge several colleagues who have allowed us to
 interface, adapt or use parts of their codes:
   Stefan Grimme, W. Hujo, H. Kruse, P. Pracht,  : VdW corrections, initial TS optimization,
                  C. Bannwarth, S. Ehlert          DFT functionals, gCP, sTDA/sTD-DF
   Ed Valeev, F. Pavosevic, A. Kumar             : LibInt (2-el integral package), F12 methods
   Garnet Chan, S. Sharma, J. Yang, R. Olivares  : DMRG
   Ulf Ekstrom                                   : XCFun DFT Library
   Mihaly Kallay                                 : mrcc  (arbitrary order and MRCC methods)
   Jiri Pittner, Ondrej Demel                    : Mk-CCSD
   Frank Weinhold                                : gennbo (NPA and NBO analysis)
   Christopher J. Cramer and Donald G. Truhlar   : smd solvation model
   Lars Goerigk                                  : TD-DFT with DH, B97 family of functionals
   V. Asgeirsson, H. Jonsson                     : NEB implementation
   FAccTs GmbH                                   : IRC, NEB, NEB-TS, DLPNO-Multilevel, CI-OPT
                                                   MM, QMMM, 2- and 3-layer-ONIOM, Crystal-QMMM,
                                                   LR-CPCM, SF, NACMEs, symmetry and pop. for TD-DFT,
                                                   nearIR, NL-DFT gradient (VV10), updates on ESD,
                                                   ML-optimized integration grids
   S Lehtola, MJT Oliveira, MAL Marques          : LibXC Library
   Liviu Ungur et al                             : ANISO software


 Your calculation uses the libint2 library for the computation of 2-el integrals
 For citations please refer to: http://libint.valeyev.net

 Your ORCA version has been built with support for libXC version: 5.1.0
 For citations please refer to: https://tddft.org/programs/libxc/

 This ORCA versions uses:
   CBLAS   interface :  Fast vector & matrix operations
   LAPACKE interface :  Fast linear algebra routines
   SCALAPACK package :  Parallel linear algebra routines
   Shared memory     :  Shared parallel matrices
   BLAS/LAPACK       :  OpenBLAS 0.3.15  USE64BITINT DYNAMIC_ARCH NO_AFFINITY Haswell SINGLE_THREADED
        Core in use  :  Haswell
   Copyright (c) 2011-2014, The OpenBLAS Project


Your calculation utilizes the atom-pairwise dispersion correction
with the Becke-Johnson damping scheme (D3BJ)
Cite in your paper:
S.Grimme, S.Ehrlich, L.Goerigk, J Comput Chem, (2011), 32, 1456–1465 
S.Grimme, J.Antony, S.Ehrlich and H.Krieg, J.Chem.Phys., 132, (2010), 154104 
   

================================================================================

----- Orbital basis set information -----
Your calculation utilizes the basis: def2-TZVP
   F. Weigend and R. Ahlrichs, Phys. Chem. Chem. Phys. 7, 3297 (2005).

----- AuxJ basis set information -----
Your calculation utilizes the auxiliary basis: def2/J
   F. Weigend, Phys. Chem. Chem. Phys. 8, 1057 (2006).

================================================================================
                                        WARNINGS
                       Please study these warnings very carefully!
================================================================================


WARNING: Geometry Optimization
  ===> : Switching off AutoStart
         For restart on a previous wavefunction, please use MOREAD

INFO   : the flag for use of the SHARK integral package has been found!

================================================================================
                                       INPUT FILE
================================================================================
NAME = ex.inp
|  1> ! PBE D3 def2-TZVP opt 
|  2> 
|  3> %pal nprocs=8 end
|  4> 
|  5> %geom maxiter=75 end
|  6> 
|  7> * xyz -1 1
|  8> O     -2.23920    1.96260    0.05480
|  9> O     -3.35570   -0.56120    0.38680
| 10> N      4.40810    0.26240    0.34450
| 11> C      2.16280   -0.02120   -0.66130
| 12> C      0.70400   -0.16030   -0.38500
| 13> C      2.98620    0.10080    0.62890
| 14> C     -0.09990    0.97590   -0.29190
| 15> C      0.14340   -1.42670   -0.21870
| 16> C     -1.46420    0.84560   -0.03260
| 17> C     -1.22090   -1.55700    0.04070
| 18> C     -2.02470   -0.42080    0.13360
| 19> H      2.51110   -0.88170   -1.24810
| 20> H      2.33320    0.85640   -1.29930
| 21> H      2.84900   -0.78880    1.25410
| 22> H      2.64570    0.95930    1.21920
| 23> H      0.33150    1.96590   -0.41870
| 24> H      0.75940   -2.31950   -0.28690
| 25> H     -1.64450   -2.54960    0.16860
| 26> H      4.54680    1.08680   -0.23880
| 27> H      4.73620   -0.52850   -0.20890
| 28> Cu      -4.0        1.0         0.0
| 29> *
| 30> 
| 31>                          ****END OF INPUT****
================================================================================

                       *****************************
                       * Geometry Optimization Run *
                       *****************************

Geometry optimization settings:
Update method            Update   .... BFGS
Choice of coordinates    CoordSys .... Z-matrix Internals
Initial Hessian          InHess   .... Almoef's Model

Convergence Tolerances:
Energy Change            TolE     ....  5.0000e-06 Eh
Max. Gradient            TolMAXG  ....  3.0000e-04 Eh/bohr
RMS Gradient             TolRMSG  ....  1.0000e-04 Eh/bohr
Max. Displacement        TolMAXD  ....  4.0000e-03 bohr
RMS Displacement         TolRMSD  ....  2.0000e-03 bohr
Strict Convergence                ....  False
------------------------------------------------------------------------------
                        ORCA OPTIMIZATION COORDINATE SETUP
------------------------------------------------------------------------------

The optimization will be done in new redundant internal coordinates
Making redundant internal coordinates   ...  (new redundants) done
Evaluating the initial hessian          ...  (Almloef) done
Evaluating the coordinates              ...  done
Calculating the B-matrix                .... done
Calculating the G-matrix                .... done
Diagonalizing the G-matrix              .... done
Small eigenvalue found = 2.277e-02
Small eigenvalue found = 2.495e-02
The first mode is                       ....   89
The number of degrees of freedom        ....   57

    -----------------------------------------------------------------
                    Redundant Internal Coordinates


    -----------------------------------------------------------------
         Definition                    Initial Value    Approx d2E/dq
    -----------------------------------------------------------------
      1. B(C   4,C   3)                  1.4912         0.430746   
      2. B(C   5,C   3)                  1.5354         0.366222   
      3. B(C   5,N   2)                  1.4590         0.434237   
      4. B(C   6,C   4)                  1.3949         0.613547   
      5. B(C   7,C   4)                  1.3949         0.613690   
      6. B(C   8,C   6)                  1.3948         0.613826   
      7. B(C   8,O   0)                  1.3623         0.619463   
      8. B(C   9,C   7)                  1.3948         0.613784   
      9. B(C  10,C   9)                  1.3949         0.613707   
     10. B(C  10,C   8)                  1.3948         0.613807   
     11. B(C  10,O   1)                  1.3621         0.619939   
     12. B(H  11,C   3)                  1.0982         0.349377   
     13. B(H  12,C   3)                  1.0983         0.349286   
     14. B(H  13,C   5)                  1.0959         0.352326   
     15. B(H  14,C   5)                  1.0961         0.352131   
     16. B(H  15,C   6)                  1.0873         0.363651   
     17. B(H  16,C   7)                  1.0868         0.364318   
     18. B(H  17,C   9)                  1.0868         0.364410   
     19. B(H  18,N   2)                  1.0194         0.418069   
     20. B(H  19,N   2)                  1.0195         0.417834   
     21. B(Cu 20,C  10)                  2.4369         0.135098   
     22. B(Cu 20,C   8)                  2.5407         0.092254   
     23. B(Cu 20,O   1)                  1.7327         1.608130   
     24. B(Cu 20,O   0)                  2.0075         0.585913   
     25. A(C   8,O   0,Cu 20)           95.9733         0.476869   
     26. A(C  10,O   1,Cu 20)          103.2375         0.576536   
     27. A(C   5,N   2,H  18)          109.4943         0.335854   
     28. A(H  18,N   2,H  19)          105.8424         0.299918   
     29. A(C   5,N   2,H  19)          109.4819         0.335823   
     30. A(H  11,C   3,H  12)          105.4560         0.288084   
     31. A(C   5,C   3,H  12)          109.9642         0.321651   
     32. A(C   4,C   3,H  11)          109.6431         0.330370   
     33. A(C   4,C   3,H  12)          109.5080         0.330355   
     34. A(C   4,C   3,C   5)          112.1064         0.371066   
     35. A(C   5,C   3,H  11)          109.9477         0.321665   
     36. A(C   3,C   4,C   7)          119.9955         0.406027   
     37. A(C   3,C   4,C   6)          120.0099         0.406011   
     38. A(C   6,C   4,C   7)          119.9946         0.432454   
     39. A(H  13,C   5,H  14)          106.8373         0.288830   
     40. A(C   3,C   5,H  14)          110.3762         0.322079   
     41. A(C   3,C   5,H  13)          110.3485         0.322108   
     42. A(N   2,C   5,H  14)          108.7215         0.329248   
     43. A(N   2,C   5,H  13)          108.8508         0.329278   
     44. A(N   2,C   5,C   3)          111.5695         0.369257   
     45. A(C   8,C   6,H  15)          119.6568         0.352897   
     46. A(C   4,C   6,H  15)          120.3429         0.352870   
     47. A(C   4,C   6,C   8)          120.0001         0.432471   
     48. A(C   9,C   7,H  16)          119.2951         0.353003   
     49. A(C   4,C   7,H  16)          120.6995         0.352994   
     50. A(C   4,C   7,C   9)          120.0053         0.432484   
     51. A(O   0,C   8,C   6)          119.4564         0.430385   
     52. A(C   6,C   8,C  10)          120.0009         0.432504   
     53. A(C   6,C   8,Cu 20)          166.6400         0.347345   
     54. A(O   0,C   8,Cu 20)           51.7985         0.345750   
     55. A(O   0,C   8,C  10)          120.5427         0.430383   
     56. A(C  10,C   8,Cu 20)           69.6705         0.347343   
     57. A(C  10,C   9,H  17)          120.7655         0.353010   
     58. A(C   7,C   9,H  17)          119.2392         0.353018   
     59. A(C   7,C   9,C  10)          119.9953         0.432486   
     60. A(C   8,C  10,C   9)          120.0036         0.432489   
     61. A(O   1,C  10,C   9)          119.4396         0.430430   
     62. A(C   9,C  10,Cu 20)          159.7800         0.370629   
     63. A(O   1,C  10,C   8)          120.5568         0.430442   
     64. A(C   8,C  10,Cu 20)           77.8681         0.370639   
     65. A(O   1,C  10,Cu 20)           43.7984         0.368951   
     66. A(O   1,Cu 20,C  10)           32.9641         0.491145   
     67. A(O   0,Cu 20,C  10)           64.3479         0.408990   
     68. A(O   1,Cu 20,C   8)           64.9738         0.457881   
     69. A(O   0,Cu 20,C   8)           32.2281         0.382522   
     70. A(C   8,Cu 20,C  10)           32.4615         0.300817   
     71. A(O   0,Cu 20,O   1)           95.7276         0.646265   
     72. D(C   6,C   4,C   3,C   5)     90.0022         0.013702   
     73. D(C   6,C   4,C   3,H  12)    -32.3330         0.013702   
     74. D(C   6,C   4,C   3,H  11)   -147.5882         0.013702   
     75. D(C   7,C   4,C   3,H  12)    147.7115         0.013702   
     76. D(C   7,C   4,C   3,H  11)     32.4563         0.013702   
     77. D(C   7,C   4,C   3,C   5)    -89.9533         0.013702   
     78. D(H  14,C   5,N   2,H  18)    -64.0906         0.016077   
     79. D(N   2,C   5,C   3,H  11)     58.8754         0.010735   
     80. D(N   2,C   5,C   3,H  12)    -56.8129         0.010735   
     81. D(H  14,C   5,C   3,H  11)    179.8731         0.010735   
     82. D(N   2,C   5,C   3,C   4)   -178.8883         0.010735   
     83. D(H  14,C   5,N   2,H  19)   -179.7115         0.016077   
     84. D(C   3,C   5,N   2,H  18)     57.8668         0.016077   
     85. D(H  13,C   5,N   2,H  19)     64.2562         0.016077   
     86. D(H  13,C   5,C   3,C   4)     59.9691         0.010735   
     87. D(H  14,C   5,C   3,C   4)    -57.8906         0.010735   
     88. D(H  13,C   5,C   3,H  11)    -62.2672         0.010735   
     89. D(C   3,C   5,N   2,H  19)    -57.7541         0.016077   
     90. D(H  13,C   5,C   3,H  12)   -177.9556         0.010735   
     91. D(H  14,C   5,C   3,H  12)     64.1847         0.010735   
     92. D(H  13,C   5,N   2,H  18)    179.8772         0.016077   
     93. D(H  15,C   6,C   4,C   7)    179.8840         0.026016   
     94. D(H  15,C   6,C   4,C   3)     -0.0715         0.026016   
     95. D(C   8,C   6,C   4,C   7)     -0.0032         0.026016   
     96. D(C   8,C   6,C   4,C   3)   -179.9586         0.026016   
     97. D(H  16,C   7,C   4,C   6)   -179.8767         0.026029   
     98. D(H  16,C   7,C   4,C   3)      0.0787         0.026029   
     99. D(C   9,C   7,C   4,C   6)     -0.0015         0.026029   
    100. D(C   9,C   7,C   4,C   3)    179.9540         0.026029   
    101. D(C  10,C   8,O   0,Cu 20)    -12.1316         0.031069   
    102. D(C   6,C   8,O   0,Cu 20)    167.8064         0.031069   
    103. D(Cu 20,C   8,C   6,C   4)   -134.0227         0.028295   
    104. D(C  10,C   8,C   6,H  15)   -179.8886         0.028295   
    105. D(C  10,C   8,C   6,C   4)     -0.0006         0.028295   
    106. D(Cu 20,C   8,C   6,H  15)     46.0894         0.028295   
    107. D(O   0,C   8,C   6,H  15)      0.1732         0.028295   
    108. D(O   0,C   8,C   6,C   4)   -179.9389         0.028295   
    109. D(H  17,C   9,C   7,H  16)     -0.0943         0.026037   
    110. D(H  17,C   9,C   7,C   4)   -179.9713         0.026037   
    111. D(C  10,C   9,C   7,H  16)    179.8869         0.026037   
    112. D(C  10,C   9,C   7,C   4)      0.0100         0.026037   
    113. D(Cu 20,C  10,C   9,H  17)    -30.0845         0.028283   
    114. D(Cu 20,C  10,C   9,C   7)    149.9346         0.028283   
    115. D(C   8,C  10,C   9,C   7)     -0.0137         0.028283   
    116. D(O   1,C  10,C   9,H  17)     -0.0439         0.028283   
    117. D(O   1,C  10,C   9,C   7)    179.9751         0.028283   
    118. D(Cu 20,C  10,C   8,C   6)   -169.7937         0.030412   
    119. D(Cu 20,C  10,C   8,O   0)     10.1439         0.030412   
    120. D(C   9,C  10,C   8,Cu 20)    169.8028         0.030412   
    121. D(C   9,C  10,C   8,C   6)      0.0091         0.030412   
    122. D(C   9,C  10,C   8,O   0)    179.9467         0.030412   
    123. D(O   1,C  10,C   8,Cu 20)    -10.1859         0.030412   
    124. D(O   1,C  10,C   8,C   6)   -179.9796         0.030412   
    125. D(C   8,C  10,C   9,H  17)    179.9672         0.028283   
    126. D(O   1,C  10,C   8,O   0)     -0.0420         0.030412   
    127. D(C   9,C  10,O   1,Cu 20)   -165.5230         0.031120   
    128. D(C   8,C  10,O   1,Cu 20)     14.4658         0.031120   
    129. D(O   0,Cu 20,C   8,C   6)    -52.7421         0.001541   
    130. D(C   8,Cu 20,O   1,C  10)     -7.4887         0.012844   
    131. D(O   0,Cu 20,O   1,C  10)    -17.3944         0.012844   
    132. D(C  10,Cu 20,O   0,C   8)      6.5995         0.002933   
    133. D(O   0,Cu 20,C   8,C  10)    168.8708         0.001541   
    134. D(O   1,Cu 20,O   0,C   8)     16.9952         0.002933   
    135. D(C   8,Cu 20,C  10,O   1)    167.2895         0.001586   
    136. D(O   1,Cu 20,C  10,C   9)     39.0430         0.001586   
    137. D(O   1,Cu 20,C  10,C   8)   -167.2895         0.001586   
    138. D(O   0,Cu 20,C  10,C   9)   -160.2245         0.001586   
    139. D(O   0,Cu 20,C  10,C   8)     -6.5570         0.001586   
    140. D(O   0,Cu 20,C  10,O   1)    160.7325         0.001586   
    141. D(C  10,Cu 20,C   8,C   6)    138.3870         0.001541   
    142. D(C  10,Cu 20,C   8,O   0)   -168.8708         0.001541   
    143. D(O   1,Cu 20,C   8,C  10)      7.5923         0.001541   
    144. D(O   1,Cu 20,C   8,C   6)    145.9793         0.001541   
    145. D(C   8,Cu 20,C  10,C   9)   -153.6675         0.001586   
    146. D(O   1,Cu 20,C   8,O   0)   -161.2786         0.001541   
    -----------------------------------------------------------------

Number of atoms                         .... 21
Number of degrees of freedom            .... 146

         *************************************************************
         *                GEOMETRY OPTIMIZATION CYCLE   1            *
         *************************************************************
---------------------------------
CARTESIAN COORDINATES (ANGSTROEM)
---------------------------------
  O     -2.239200    1.962600    0.054800
  O     -3.355700   -0.561200    0.386800
  N      4.408100    0.262400    0.344500
  C      2.162800   -0.021200   -0.661300
  C      0.704000   -0.160300   -0.385000
  C      2.986200    0.100800    0.628900
  C     -0.099900    0.975900   -0.291900
  C      0.143400   -1.426700   -0.218700
  C     -1.464200    0.845600   -0.032600
  C     -1.220900   -1.557000    0.040700
  C     -2.024700   -0.420800    0.133600
  H      2.511100   -0.881700   -1.248100
  H      2.333200    0.856400   -1.299300
  H      2.849000   -0.788800    1.254100
  H      2.645700    0.959300    1.219200
  H      0.331500    1.965900   -0.418700
  H      0.759400   -2.319500   -0.286900
  H     -1.644500   -2.549600    0.168600
  H      4.546800    1.086800   -0.238800
  H      4.736200   -0.528500   -0.208900
  Cu    -4.000000    1.000000    0.000000

----------------------------
CARTESIAN COORDINATES (A.U.)
----------------------------
  NO LB      ZA    FRAG     MASS         X           Y           Z
   0 O     8.0000    0    15.999   -4.231475    3.708777    0.103557
   1 O     8.0000    0    15.999   -6.341354   -1.060514    0.730946
   2 N     7.0000    0    14.007    8.330102    0.495864    0.651011
   3 C     6.0000    0    12.011    4.087100   -0.040062   -1.249676
   4 C     6.0000    0    12.011    1.330367   -0.302923   -0.727545
   5 C     6.0000    0    12.011    5.643100    0.190484    1.188449
   6 C     6.0000    0    12.011   -0.188784    1.844184   -0.551611
   7 C     6.0000    0    12.011    0.270987   -2.696072   -0.413283
   8 C     6.0000    0    12.011   -2.766937    1.597952   -0.061605
   9 C     6.0000    0    12.011   -2.307167   -2.942304    0.076912
  10 C     6.0000    0    12.011   -3.826129   -0.795197    0.252467
  11 H     1.0000    0     1.008    4.745291   -1.666172   -2.358567
  12 H     1.0000    0     1.008    4.409109    1.618361   -2.455321
  13 H     1.0000    0     1.008    5.383830   -1.490616    2.369906
  14 H     1.0000    0     1.008    4.999648    1.812814    2.303954
  15 H     1.0000    0     1.008    0.626444    3.715013   -0.791228
  16 H     1.0000    0     1.008    1.435058   -4.383220   -0.542162
  17 H     1.0000    0     1.008   -3.107655   -4.818046    0.318608
  18 H     1.0000    0     1.008    8.592207    2.053754   -0.451267
  19 H     1.0000    0     1.008    8.950121   -0.998720   -0.394764
  20 Cu   29.0000    0    63.550   -7.558905    1.889726    0.000000

--------------------------------
INTERNAL COORDINATES (ANGSTROEM)
--------------------------------
 O      0   0   0     0.000000000000     0.00000000     0.00000000
 O      1   0   0     2.779633553186     0.00000000     0.00000000
 N      1   2   0     6.867401504208    99.14714459     0.00000000
 C      3   1   2     2.476577212606    29.96407417    55.13168750
 C      4   3   1     1.491237050237   145.31846300   315.74994210
 C      3   1   2     1.459039934340    24.81509723   333.55596307
 C      5   4   3     1.394945611843   120.00986433    88.93171261
 C      5   4   3     1.394882435906   119.99548447   268.97625536
 C      1   2   3     1.362333571487    59.45011491    11.97530280
 C      8   5   4     1.394840829629   120.00534669   179.95396605
 C      2   1   3     1.362124590484    59.45045967   348.00359665
 H      4   3   1     1.098229201943    91.09977029   187.53385078
 H      4   3   1     1.098299558408    90.21515103    82.07053766
 H      6   3   1     1.095941166304   108.85076632   180.98365193
 H      6   3   1     1.096091506217   108.72145264   297.01590650
 H      7   5   4     1.087328929073   120.34291932   359.92852558
 H      8   5   4     1.086829830286   120.69945838     0.07874957
 H     10   8   5     1.086761303139   119.23915274   180.02870647
 H      3   1   2     1.019368402492    84.68344350   152.50839892
 H      3   1   2     1.019521446562   118.72874114    47.34042349
 Cu     2   1   3     1.732651774016    45.93971512   187.75318765

---------------------------
INTERNAL COORDINATES (A.U.)
---------------------------
 O      0   0   0     0.000000000000     0.00000000     0.00000000
 O      1   0   0     5.252746168181     0.00000000     0.00000000
 N      1   2   0    12.977508094632    99.14714459     0.00000000
 C      3   1   2     4.680052681336    29.96407417    55.13168750
 C      4   3   1     2.818029625705   145.31846300   315.74994210
 C      3   1   2     2.757185894358    24.81509723   333.55596307
 C      5   4   3     2.636065178098   120.00986433    88.93171261
 C      5   4   3     2.635945792880   119.99548447   268.97625536
 C      1   2   3     2.574437353157    59.45011491    11.97530280
 C      8   5   4     2.635867168410   120.00534669   179.95396605
 C      2   1   3     2.574042436294    59.45045967   348.00359665
 H      4   3   1     2.075352423947    91.09977029   187.53385078
 H      4   3   1     2.075485378398    90.21515103    82.07053766
 H      6   3   1     2.071028663205   108.85076632   180.98365193
 H      6   3   1     2.071312764466   108.72145264   297.01590650
 H      7   5   4     2.054753893439   120.34291932   359.92852558
 H      8   5   4     2.053810733417   120.69945838     0.07874957
 H     10   8   5     2.053681235876   119.23915274   180.02870647
 H      3   1   2     1.926327110284    84.68344350   152.50839892
 H      3   1   2     1.926616321662   118.72874114    47.34042349
 Cu     2   1   3     3.274237338343    45.93971512   187.75318765

---------------------
BASIS SET INFORMATION
---------------------
There are 5 groups of distinct atoms

 Group   1 Type O   : 11s6p2d1f contracted to 5s3p2d1f pattern {62111/411/11/1}
 Group   2 Type N   : 11s6p2d1f contracted to 5s3p2d1f pattern {62111/411/11/1}
 Group   3 Type C   : 11s6p2d1f contracted to 5s3p2d1f pattern {62111/411/11/1}
 Group   4 Type H   : 5s1p contracted to 3s1p pattern {311/1}
 Group   5 Type Cu  : 17s11p7d1f contracted to 6s4p4d1f pattern {842111/6311/4111/1}

Atom   0O    basis set group =>   1
Atom   1O    basis set group =>   1
Atom   2N    basis set group =>   2
Atom   3C    basis set group =>   3
Atom   4C    basis set group =>   3
Atom   5C    basis set group =>   3
Atom   6C    basis set group =>   3
Atom   7C    basis set group =>   3
Atom   8C    basis set group =>   3
Atom   9C    basis set group =>   3
Atom  10C    basis set group =>   3
Atom  11H    basis set group =>   4
Atom  12H    basis set group =>   4
Atom  13H    basis set group =>   4
Atom  14H    basis set group =>   4
Atom  15H    basis set group =>   4
Atom  16H    basis set group =>   4
Atom  17H    basis set group =>   4
Atom  18H    basis set group =>   4
Atom  19H    basis set group =>   4
Atom  20Cu   basis set group =>   5
---------------------------------
AUXILIARY/J BASIS SET INFORMATION
---------------------------------
There are 5 groups of distinct atoms

 Group   1 Type O   : 12s5p4d2f1g contracted to 6s4p3d1f1g pattern {711111/2111/211/2/1}
 Group   2 Type N   : 12s5p4d2f1g contracted to 6s4p3d1f1g pattern {711111/2111/211/2/1}
 Group   3 Type C   : 12s5p4d2f1g contracted to 6s4p3d1f1g pattern {711111/2111/211/2/1}
 Group   4 Type H   : 5s2p1d contracted to 3s1p1d pattern {311/2/1}
 Group   5 Type Cu  : 19s5p5d3f3g contracted to 8s5p4d3f3g pattern {121111111/11111/2111/111/111}

Atom   0O    basis set group =>   1
Atom   1O    basis set group =>   1
Atom   2N    basis set group =>   2
Atom   3C    basis set group =>   3
Atom   4C    basis set group =>   3
Atom   5C    basis set group =>   3
Atom   6C    basis set group =>   3
Atom   7C    basis set group =>   3
Atom   8C    basis set group =>   3
Atom   9C    basis set group =>   3
Atom  10C    basis set group =>   3
Atom  11H    basis set group =>   4
Atom  12H    basis set group =>   4
Atom  13H    basis set group =>   4
Atom  14H    basis set group =>   4
Atom  15H    basis set group =>   4
Atom  16H    basis set group =>   4
Atom  17H    basis set group =>   4
Atom  18H    basis set group =>   4
Atom  19H    basis set group =>   4
Atom  20Cu   basis set group =>   5


           ************************************************************
           *        Program running with 8 parallel MPI-processes     *
           *              working on a common directory               *
           ************************************************************
------------------------------------------------------------------------------
                           ORCA GTO INTEGRAL CALCULATION
                           -- RI-GTO INTEGRALS CHOSEN --
------------------------------------------------------------------------------
------------------------------------------------------------------------------
                   ___                                                        
                  /   \      - P O W E R E D   B Y -                         
                 /     \                                                     
                 |  |  |   _    _      __       _____    __    __             
                 |  |  |  | |  | |    /  \     |  _  \  |  |  /  |          
                  \  \/   | |  | |   /    \    | | | |  |  | /  /          
                 / \  \   | |__| |  /  /\  \   | |_| |  |  |/  /          
                |  |  |   |  __  | /  /__\  \  |    /   |      \           
                |  |  |   | |  | | |   __   |  |    \   |  |\   \          
                \     /   | |  | | |  |  |  |  | |\  \  |  | \   \       
                 \___/    |_|  |_| |__|  |__|  |_| \__\ |__|  \__/        
                                                                              
                      - O R C A' S   B I G   F R I E N D -                    
                                      &                                       
                       - I N T E G R A L  F E E D E R -                       
                                                                              
 v1 FN, 2020, v2 2021                                                         
------------------------------------------------------------------------------


Reading SHARK input file ex.SHARKINP.tmp ... ok
----------------------
SHARK INTEGRAL PACKAGE
----------------------

Number of atoms                             ...     21
Number of basis functions                   ...    440
Number of shells                            ...    172
Maximum angular momentum                    ...      3
Integral batch strategy                     ... SHARK/LIBINT Hybrid
RI-J (if used) integral strategy            ... SPLIT-RIJ (Revised 2003 algorithm where possible)
Printlevel                                  ...      1
Contraction scheme used                     ... SEGMENTED contraction
Coulomb Range Separation                    ... NOT USED
Exchange Range Separation                   ... NOT USED
Finite Nucleus Model                        ... NOT USED
Auxiliary Coulomb fitting basis             ... AVAILABLE
   # of basis functions in Aux-J            ...    729
   # of shells in Aux-J                     ...    233
   Maximum angular momentum in Aux-J        ...      4
Auxiliary J/K fitting basis                 ... NOT available
Auxiliary Correlation fitting basis         ... NOT available
Auxiliary 'external' fitting basis          ... NOT available
Integral threshold                          ...     2.500000e-11
Primitive cut-off                           ...     2.500000e-12
Primitive pair pre-selection threshold      ...     2.500000e-12

Calculating pre-screening integrals         ... done (  0.1 sec) Dimension = 172
Organizing shell pair data                  ... done (  0.1 sec)
Shell pair information
Total number of shell pairs                 ...     14878
Shell pairs after pre-screening             ...     12076
Total number of primitive shell pairs       ...     48533
Primitive shell pairs kept                  ...     27436
          la=0 lb=0:   3079 shell pairs
          la=1 lb=0:   3354 shell pairs
          la=1 lb=1:    928 shell pairs
          la=2 lb=0:   1839 shell pairs
          la=2 lb=1:   1006 shell pairs
          la=2 lb=2:    291 shell pairs
          la=3 lb=0:    815 shell pairs
          la=3 lb=1:    450 shell pairs
          la=3 lb=2:    250 shell pairs
          la=3 lb=3:     64 shell pairs

Calculating one electron integrals          ... done (  0.0 sec)
Calculating RI/J V-Matrix + Cholesky decomp.... done (  0.0 sec)
Calculating Nuclear repulsion               ... done (  0.0 sec) ENN=    919.195477147237 Eh

SHARK setup successfully completed in   0.3 seconds

Maximum memory used throughout the entire GTOINT-calculation: 21.4 MB


           ************************************************************
           *        Program running with 8 parallel MPI-processes     *
           *              working on a common directory               *
           ************************************************************
-------------------------------------------------------------------------------
                                 ORCA SCF
-------------------------------------------------------------------------------

------------
SCF SETTINGS
------------
Hamiltonian:
 Density Functional     Method          .... DFT(GTOs)
 Exchange Functional    Exchange        .... PBE
   PBE kappa parameter   XKappa         ....  0.804000
   PBE mue parameter    XMuePBE         ....  0.219520
 Correlation Functional Correlation     .... PBE
   PBE beta parameter  CBetaPBE         ....  0.066725
 LDA part of GGA corr.  LDAOpt          .... PW91-LDA
 Gradients option       PostSCFGGA      .... off
   Density functional embedding theory  .... OFF
   NL short-range parameter             ....  6.400000
 RI-approximation to the Coulomb term is turned on
   Number of AuxJ basis functions       .... 729


General Settings:
 Integral files         IntName         .... ex
 Hartree-Fock type      HFTyp           .... RHF
 Total Charge           Charge          ....   -1
 Multiplicity           Mult            ....    1
 Number of Electrons    NEL             ....  110
 Basis Dimension        Dim             ....  440
 Nuclear Repulsion      ENuc            ....    919.1954771472 Eh

Convergence Acceleration:
 DIIS                   CNVDIIS         .... on
   Start iteration      DIISMaxIt       ....    12
   Startup error        DIISStart       ....  0.200000
   # of expansion vecs  DIISMaxEq       ....     5
   Bias factor          DIISBfac        ....   1.050
   Max. coefficient     DIISMaxC        ....  10.000
 Trust-Rad. Augm. Hess. CNVTRAH         .... auto
   Auto Start mean grad. ratio tolernc. ....  1.125000
   Auto Start start iteration           ....    20
   Auto Start num. interpolation iter.  ....    10
   Max. Number of Micro iterations      ....    16
   Max. Number of Macro iterations      .... Maxiter - #DIIS iter
   Number of Davidson start vectors     ....     2
   Converg. threshold I  (grad. norm)   ....   1.000e-05
   Converg. threshold II (energy diff.) ....   1.000e-08
   Grad. Scal. Fac. for Micro threshold ....   0.100
   Minimum threshold for Micro iter.    ....   0.010
   NR start threshold (gradient norm)   ....   0.001
   Initial trust radius                 ....   0.400
   Minimum AH scaling param. (alpha)    ....   1.000
   Maximum AH scaling param. (alpha)    .... 1000.000
   Orbital update algorithm             .... Taylor
   White noise on init. David. guess    .... on
   Maximum white noise                  ....   0.010
   Quad. conv. algorithm                .... NR
 SOSCF                  CNVSOSCF        .... off
 Level Shifting         CNVShift        .... on
   Level shift para.    LevelShift      ....    0.2500
   Turn off err/grad.   ShiftErr        ....    0.0010
 Zerner damping         CNVZerner       .... off
 Static damping         CNVDamp         .... on
   Fraction old density DampFac         ....    0.7000
   Max. Damping (<1)    DampMax         ....    0.9800
   Min. Damping (>=0)   DampMin         ....    0.0000
   Turn off err/grad.   DampErr         ....    0.1000
 Fernandez-Rico         CNVRico         .... off

SCF Procedure:
 Maximum # iterations   MaxIter         ....   125
 SCF integral mode      SCFMode         .... Direct
   Integral package                     .... SHARK and LIBINT hybrid scheme
 Reset frequency        DirectResetFreq ....    20
 Integral Threshold     Thresh          ....  2.500e-11 Eh
 Primitive CutOff       TCut            ....  2.500e-12 Eh

Convergence Tolerance:
 Convergence Check Mode ConvCheckMode   .... Total+1el-Energy
 Convergence forced     ConvForced      .... 0
 Energy Change          TolE            ....  1.000e-08 Eh
 1-El. energy change                    ....  1.000e-05 Eh
 DIIS Error             TolErr          ....  5.000e-07


Diagonalization of the overlap matrix:
Smallest eigenvalue                        ... 9.182e-06
Time for diagonalization                   ...    0.037 sec
Threshold for overlap eigenvalues          ... 1.000e-08
Number of eigenvalues below threshold      ... 0
Time for construction of square roots      ...    0.022 sec
Total time needed                          ...    0.060 sec

Time for model grid setup =    0.106 sec

------------------------------
INITIAL GUESS: MODEL POTENTIAL
------------------------------
Loading Hartree-Fock densities                     ... done
Calculating cut-offs                               ... done
Initializing the effective Hamiltonian             ... done
Setting up the integral package (SHARK)            ... done
Starting the Coulomb interaction                   ... done (   0.1 sec)
Reading the grid                                   ... done
Mapping shells                                     ... done
Starting the XC term evaluation                    ... done (   0.1 sec)
  promolecular density results
     # of electrons  =    108.995785618
     EX              =   -131.917404148
     EC              =     -4.041144178
     EX+EC           =   -135.958548326
Transforming the Hamiltonian                       ... done (   0.0 sec)
Diagonalizing the Hamiltonian                      ... done (   0.0 sec)
Back transforming the eigenvectors                 ... done (   0.0 sec)
Now organizing SCF variables                       ... done
                      ------------------
                      INITIAL GUESS DONE (   0.4 sec)
                      ------------------
-------------------
DFT GRID GENERATION
-------------------

General Integration Accuracy     IntAcc      ... 4.388
Radial Grid Type                 RadialGrid  ... OptM3 with GC (2021)
Angular Grid (max. ang.)         AngularGrid ... 4 (Lebedev-302)
Angular grid pruning method      GridPruning ... 4 (adaptive)
Weight generation scheme         WeightScheme... Becke
Basis function cutoff            BFCut       ... 1.0000e-11
Integration weight cutoff        WCut        ... 1.0000e-14
Angular grids for H and He will be reduced by one unit
Partially contracted basis set               ... off
Rotationally invariant grid construction     ... off

Total number of grid points                  ...   106021
Total number of batches                      ...     1666
Average number of points per batch           ...       63
Average number of grid points per atom       ...     5049
Time for grid setup =    0.549 sec

--------------
SCF ITERATIONS
--------------
ITER       Energy         Delta-E        Max-DP      RMS-DP      [F,P]     Damp
               ***  Starting incremental Fock matrix formation  ***
  0  -2154.8628536153   0.000000000000 1.67004848  0.01091115  0.3094820 0.7000
  1  -2155.1232955767  -0.260441961435 0.93192369  0.00620572  0.1059131 0.7000
                               ***Turning on DIIS***
  2  -2155.1992410042  -0.075945427429 0.33632062  0.00348485  0.0556010 0.0000
  3  -2155.3331445166  -0.133903512427 0.28030811  0.00177707  0.1189337 0.7000
  4  -2155.3516657771  -0.018521260548 0.84571058  0.00552059  0.0869491 0.0000
  5  -2155.3801623887  -0.028496611569 0.06292594  0.00042917  0.0279785 0.0000
  6  -2155.3821070646  -0.001944675838 0.01160100  0.00014443  0.0026080 0.0000
  7  -2155.3821967242  -0.000089659683 0.01014619  0.00007472  0.0023946 0.0000
  8  -2155.3822165902  -0.000019866009 0.00590397  0.00004629  0.0011440 0.0000
  9  -2155.3822213377  -0.000004747406 0.00322388  0.00004205  0.0007925 0.0000
 10  -2155.3822198074   0.000001530230 0.00063954  0.00000580  0.0017434 0.0000
 11  -2155.3822226868  -0.000002879342 0.00138751  0.00001469  0.0006345 0.0000
 12  -2155.3822231704  -0.000000483657 0.00054160  0.00000477  0.0003073 0.0000
 13  -2155.3822232985  -0.000000128121 0.00064994  0.00000543  0.0001852 0.0000
 14  -2155.3822233471  -0.000000048578 0.00023132  0.00000202  0.0000950 0.0000
 15  -2155.3822233559  -0.000000008803 0.00034166  0.00000334  0.0000382 0.0000
 16  -2155.3822233572  -0.000000001288 0.00033071  0.00000371  0.0000269 0.0000
 17  -2155.3822233725  -0.000000015257 0.00014389  0.00000131  0.0000094 0.0000
 18  -2155.3822233581   0.000000014331 0.00011726  0.00000098  0.0000066 0.0000
 19  -2155.3822233574   0.000000000704 0.00066304  0.00000590  0.0000050 0.0000
               *** Restarting incremental Fock matrix formation ***
                                   *** Resetting DIIS ***
 20  -2155.3822233700  -0.000000012521 0.00111503  0.00001060  0.0000016 0.0000
 21  -2155.3822233756  -0.000000005612 0.00011188  0.00000099  0.0000086 0.0000
 22  -2155.3822233747   0.000000000901 0.00017663  0.00000170  0.0000014 0.0000
                 **** Energy Check signals convergence ****

               *****************************************************
               *                     SUCCESS                       *
               *           SCF CONVERGED AFTER  23 CYCLES          *
               *****************************************************


----------------
TOTAL SCF ENERGY
----------------

Total Energy       :        -2155.38222337 Eh          -58650.93205 eV

Components:
Nuclear Repulsion  :          919.19547715 Eh           25012.58055 eV
Electronic Energy  :        -3074.57770052 Eh          -83663.51260 eV
One Electron Energy:        -4833.97021167 Eh         -131539.01677 eV
Two Electron Energy:         1759.39251116 Eh           47875.50417 eV

Virial components:
Potential Energy   :        -4306.66991038 Eh         -117190.44611 eV
Kinetic Energy     :         2151.28768701 Eh           58539.51405 eV
Virial Ratio       :            2.00190330


DFT components:
N(Alpha)           :       54.999945419801 electrons
N(Beta)            :       54.999945419801 electrons
N(Total)           :      109.999890839601 electrons
E(X)               :     -133.470608821629 Eh       
E(C)               :       -4.086301581180 Eh       
E(XC)              :     -137.556910402810 Eh       
DFET-embed. en.    :        0.000000000000 Eh       

---------------
SCF CONVERGENCE
---------------

  Last Energy change         ...    3.0532e-09  Tolerance :   1.0000e-08
  Last MAX-Density change    ...    2.0997e-04  Tolerance :   1.0000e-07
  Last RMS-Density change    ...    2.1250e-06  Tolerance :   5.0000e-09
  Last DIIS Error            ...    2.3556e-07  Tolerance :   5.0000e-07

             **** THE GBW FILE WAS UPDATED (ex.gbw) ****
             **** DENSITY ex.scfp WAS UPDATED ****
             **** ENERGY FILE WAS UPDATED (ex.en.tmp) ****
             **** THE GBW FILE WAS UPDATED (ex.gbw) ****
             **** DENSITY ex.scfp WAS UPDATED ****
----------------
ORBITAL ENERGIES
----------------

  NO   OCC          E(Eh)            E(eV) 
   0   2.0000    -321.324007     -8743.6707 
   1   2.0000     -38.095605     -1036.6341 
   2   2.0000     -33.386556      -908.4944 
   3   2.0000     -33.386369      -908.4893 
   4   2.0000     -33.385484      -908.4652 
   5   2.0000     -18.560721      -505.0629 
   6   2.0000     -18.544743      -504.6281 
   7   2.0000     -13.861309      -377.1854 
   8   2.0000      -9.788563      -266.3603 
   9   2.0000      -9.754108      -265.4228 
  10   2.0000      -9.753454      -265.4050 
  11   2.0000      -9.751503      -265.3519 
  12   2.0000      -9.726057      -264.6595 
  13   2.0000      -9.717790      -264.4345 
  14   2.0000      -9.714126      -264.3348 
  15   2.0000      -9.711247      -264.2565 
  16   2.0000      -3.930369      -106.9508 
  17   2.0000      -2.469059       -67.1865 
  18   2.0000      -2.467685       -67.1491 
  19   2.0000      -2.459386       -66.9233 
  20   2.0000      -0.744707       -20.2645 
  21   2.0000      -0.703733       -19.1495 
  22   2.0000      -0.702811       -19.1245 
  23   2.0000      -0.611459       -16.6386 
  24   2.0000      -0.551958       -15.0195 
  25   2.0000      -0.497608       -13.5406 
  26   2.0000      -0.475730       -12.9453 
  27   2.0000      -0.430849       -11.7240 
  28   2.0000      -0.385015       -10.4768 
  29   2.0000      -0.350382        -9.5344 
  30   2.0000      -0.344089        -9.3631 
  31   2.0000      -0.290810        -7.9133 
  32   2.0000      -0.280954        -7.6452 
  33   2.0000      -0.277724        -7.5573 
  34   2.0000      -0.245616        -6.6835 
  35   2.0000      -0.234972        -6.3939 
  36   2.0000      -0.229687        -6.2501 
  37   2.0000      -0.209432        -5.6989 
  38   2.0000      -0.203034        -5.5248 
  39   2.0000      -0.199017        -5.4155 
  40   2.0000      -0.186134        -5.0650 
  41   2.0000      -0.160447        -4.3660 
  42   2.0000      -0.153115        -4.1665 
  43   2.0000      -0.131938        -3.5902 
  44   2.0000      -0.119157        -3.2424 
  45   2.0000      -0.109903        -2.9906 
  46   2.0000      -0.092831        -2.5261 
  47   2.0000      -0.074748        -2.0340 
  48   2.0000      -0.051967        -1.4141 
  49   2.0000      -0.037270        -1.0142 
  50   2.0000      -0.031221        -0.8496 
  51   2.0000      -0.027111        -0.7377 
  52   2.0000      -0.015776        -0.4293 
  53   2.0000       0.010194         0.2774 
  54   2.0000       0.018481         0.5029 
  55   0.0000       0.056070         1.5257 
  56   0.0000       0.104163         2.8344 
  57   0.0000       0.130363         3.5473 
  58   0.0000       0.145112         3.9487 
  59   0.0000       0.145596         3.9619 
  60   0.0000       0.155108         4.2207 
  61   0.0000       0.171045         4.6544 
  62   0.0000       0.187188         5.0936 
  63   0.0000       0.205329         5.5873 
  64   0.0000       0.213177         5.8008 
  65   0.0000       0.213841         5.8189 
  66   0.0000       0.219658         5.9772 
  67   0.0000       0.225161         6.1269 
  68   0.0000       0.229489         6.2447 
  69   0.0000       0.242285         6.5929 
  70   0.0000       0.243906         6.6370 
  71   0.0000       0.252027         6.8580 
  72   0.0000       0.259307         7.0561 
  73   0.0000       0.289966         7.8904 
  74   0.0000       0.291221         7.9245 
  75   0.0000       0.305166         8.3040 
  76   0.0000       0.314143         8.5483 
  77   0.0000       0.316638         8.6161 
  78   0.0000       0.329369         8.9626 
  79   0.0000       0.333286         9.0692 
  80   0.0000       0.335356         9.1255 
  81   0.0000       0.343636         9.3508 
  82   0.0000       0.349059         9.4984 
  83   0.0000       0.359443         9.7810 
  84   0.0000       0.369083        10.0432 
  85   0.0000       0.374702        10.1961 
  86   0.0000       0.383861        10.4454 
  87   0.0000       0.389471        10.5981 
  88   0.0000       0.402834        10.9617 
  89   0.0000       0.411595        11.2001 
  90   0.0000       0.415077        11.2948 
  91   0.0000       0.427417        11.6306 
  92   0.0000       0.434865        11.8333 
  93   0.0000       0.444687        12.1005 
  94   0.0000       0.451734        12.2923 
  95   0.0000       0.464714        12.6455 
  96   0.0000       0.472657        12.8617 
  97   0.0000       0.473874        12.8948 
  98   0.0000       0.479620        13.0511 
  99   0.0000       0.488594        13.2953 
 100   0.0000       0.493236        13.4216 
 101   0.0000       0.501024        13.6336 
 102   0.0000       0.509461        13.8631 
 103   0.0000       0.515891        14.0381 
 104   0.0000       0.516461        14.0536 
 105   0.0000       0.525617        14.3028 
 106   0.0000       0.532070        14.4783 
 107   0.0000       0.543761        14.7965 
 108   0.0000       0.549595        14.9552 
 109   0.0000       0.555137        15.1060 
 110   0.0000       0.566537        15.4163 
 111   0.0000       0.567602        15.4452 
 112   0.0000       0.569893        15.5076 
 113   0.0000       0.589734        16.0475 
 114   0.0000       0.598320        16.2811 
 115   0.0000       0.604392        16.4463 
 116   0.0000       0.610668        16.6171 
 117   0.0000       0.621943        16.9239 
 118   0.0000       0.634129        17.2555 
 119   0.0000       0.641140        17.4463 
 120   0.0000       0.668502        18.1909 
 121   0.0000       0.677739        18.4422 
 122   0.0000       0.684387        18.6231 
 123   0.0000       0.702869        19.1260 
 124   0.0000       0.710756        19.3407 
 125   0.0000       0.723904        19.6984 
 126   0.0000       0.731150        19.8956 
 127   0.0000       0.739636        20.1265 
 128   0.0000       0.759620        20.6703 
 129   0.0000       0.762502        20.7487 
 130   0.0000       0.767609        20.8877 
 131   0.0000       0.788102        21.4453 
 132   0.0000       0.799525        21.7562 
 133   0.0000       0.805973        21.9316 
 134   0.0000       0.813756        22.1434 
 135   0.0000       0.828765        22.5518 
 136   0.0000       0.848825        23.0977 
 137   0.0000       0.873670        23.7738 
 138   0.0000       0.878949        23.9174 
 139   0.0000       0.888143        24.1676 
 140   0.0000       0.891515        24.2594 
 141   0.0000       0.905217        24.6322 
 142   0.0000       0.912152        24.8209 
 143   0.0000       0.941720        25.6255 
 144   0.0000       0.945833        25.7374 
 145   0.0000       0.953716        25.9519 
 146   0.0000       0.971600        26.4386 
 147   0.0000       0.977808        26.6075 
 148   0.0000       0.983316        26.7574 
 149   0.0000       0.996411        27.1137 
 150   0.0000       1.015869        27.6432 
 151   0.0000       1.031172        28.0596 
 152   0.0000       1.035986        28.1906 
 153   0.0000       1.041993        28.3541 
 154   0.0000       1.056370        28.7453 
 155   0.0000       1.068242        29.0683 
 156   0.0000       1.083002        29.4700 
 157   0.0000       1.112909        30.2838 
 158   0.0000       1.139218        30.9997 
 159   0.0000       1.151537        31.3349 
 160   0.0000       1.163934        31.6723 
 161   0.0000       1.173275        31.9264 
 162   0.0000       1.203828        32.7578 
 163   0.0000       1.216010        33.0893 
 164   0.0000       1.223727        33.2993 
 165   0.0000       1.244258        33.8580 
 166   0.0000       1.255687        34.1690 
 167   0.0000       1.259469        34.2719 
 168   0.0000       1.279887        34.8275 
 169   0.0000       1.293048        35.1856 
 170   0.0000       1.311153        35.6783 
 171   0.0000       1.316274        35.8176 
 172   0.0000       1.334101        36.3027 
 173   0.0000       1.337830        36.4042 
 174   0.0000       1.369576        37.2680 
 175   0.0000       1.374070        37.3903 
 176   0.0000       1.386428        37.7266 
 177   0.0000       1.391381        37.8614 
 178   0.0000       1.416796        38.5530 
 179   0.0000       1.422402        38.7055 
 180   0.0000       1.436283        39.0832 
 181   0.0000       1.454689        39.5841 
 182   0.0000       1.458432        39.6860 
 183   0.0000       1.487886        40.4874 
 184   0.0000       1.508370        41.0448 
 185   0.0000       1.534309        41.7507 
 186   0.0000       1.561443        42.4890 
 187   0.0000       1.582388        43.0590 
 188   0.0000       1.591715        43.3128 
 189   0.0000       1.594022        43.3756 
 190   0.0000       1.604704        43.6662 
 191   0.0000       1.620914        44.1073 
 192   0.0000       1.628373        44.3103 
 193   0.0000       1.647939        44.8427 
 194   0.0000       1.658448        45.1287 
 195   0.0000       1.661764        45.2189 
 196   0.0000       1.679384        45.6984 
 197   0.0000       1.688151        45.9369 
 198   0.0000       1.718861        46.7726 
 199   0.0000       1.736084        47.2412 
 200   0.0000       1.775659        48.3181 
 201   0.0000       1.785370        48.5824 
 202   0.0000       1.793590        48.8061 
 203   0.0000       1.819775        49.5186 
 204   0.0000       1.833680        49.8970 
 205   0.0000       1.839186        50.0468 
 206   0.0000       1.848038        50.2877 
 207   0.0000       1.863263        50.7020 
 208   0.0000       1.876930        51.0739 
 209   0.0000       1.886588        51.3367 
 210   0.0000       1.925827        52.4044 
 211   0.0000       1.940271        52.7975 
 212   0.0000       1.945635        52.9434 
 213   0.0000       1.953693        53.1627 
 214   0.0000       1.958659        53.2978 
 215   0.0000       1.987610        54.0856 
 216   0.0000       1.998586        54.3843 
 217   0.0000       2.006737        54.6061 
 218   0.0000       2.016084        54.8604 
 219   0.0000       2.016918        54.8831 
 220   0.0000       2.045954        55.6732 
 221   0.0000       2.047026        55.7024 
 222   0.0000       2.062749        56.1303 
 223   0.0000       2.075530        56.4780 
 224   0.0000       2.091330        56.9080 
 225   0.0000       2.112771        57.4914 
 226   0.0000       2.139813        58.2273 
 227   0.0000       2.153676        58.6045 
 228   0.0000       2.175735        59.2048 
 229   0.0000       2.203764        59.9675 
 230   0.0000       2.208522        60.0969 
 231   0.0000       2.239216        60.9322 
 232   0.0000       2.247162        61.1484 
 233   0.0000       2.257461        61.4286 
 234   0.0000       2.269340        61.7519 
 235   0.0000       2.277243        61.9669 
 236   0.0000       2.294112        62.4260 
 237   0.0000       2.312974        62.9392 
 238   0.0000       2.316282        63.0292 
 239   0.0000       2.336606        63.5823 
 240   0.0000       2.362814        64.2954 
 241   0.0000       2.384969        64.8983 
 242   0.0000       2.408988        65.5519 
 243   0.0000       2.442389        66.4608 
 244   0.0000       2.457348        66.8678 
 245   0.0000       2.459680        66.9313 
 246   0.0000       2.474640        67.3384 
 247   0.0000       2.507494        68.2324 
 248   0.0000       2.522068        68.6290 
 249   0.0000       2.548356        69.3443 
 250   0.0000       2.570212        69.9390 
 251   0.0000       2.584608        70.3308 
 252   0.0000       2.595746        70.6338 
 253   0.0000       2.607009        70.9403 
 254   0.0000       2.617262        71.2193 
 255   0.0000       2.640670        71.8563 
 256   0.0000       2.655457        72.2587 
 257   0.0000       2.669415        72.6385 
 258   0.0000       2.677238        72.8513 
 259   0.0000       2.688532        73.1587 
 260   0.0000       2.714139        73.8555 
 261   0.0000       2.723759        74.1172 
 262   0.0000       2.735377        74.4334 
 263   0.0000       2.755742        74.9875 
 264   0.0000       2.763613        75.2017 
 265   0.0000       2.769235        75.3547 
 266   0.0000       2.783039        75.7304 
 267   0.0000       2.801812        76.2412 
 268   0.0000       2.812187        76.5235 
 269   0.0000       2.818212        76.6874 
 270   0.0000       2.846922        77.4687 
 271   0.0000       2.856539        77.7304 
 272   0.0000       2.871131        78.1275 
 273   0.0000       2.885818        78.5271 
 274   0.0000       2.896507        78.8180 
 275   0.0000       2.902779        78.9886 
 276   0.0000       2.909751        79.1783 
 277   0.0000       2.925242        79.5999 
 278   0.0000       2.943959        80.1092 
 279   0.0000       2.964041        80.6557 
 280   0.0000       2.987300        81.2886 
 281   0.0000       2.996808        81.5473 
 282   0.0000       3.006938        81.8229 
 283   0.0000       3.023518        82.2741 
 284   0.0000       3.046418        82.8973 
 285   0.0000       3.051440        83.0339 
 286   0.0000       3.073673        83.6389 
 287   0.0000       3.105810        84.5134 
 288   0.0000       3.109832        84.6228 
 289   0.0000       3.132484        85.2392 
 290   0.0000       3.143327        85.5343 
 291   0.0000       3.158728        85.9533 
 292   0.0000       3.184628        86.6581 
 293   0.0000       3.189063        86.7788 
 294   0.0000       3.198262        87.0291 
 295   0.0000       3.226401        87.7948 
 296   0.0000       3.229741        87.8857 
 297   0.0000       3.247737        88.3754 
 298   0.0000       3.254030        88.5467 
 299   0.0000       3.267613        88.9163 
 300   0.0000       3.276721        89.1641 
 301   0.0000       3.285532        89.4039 
 302   0.0000       3.308272        90.0226 
 303   0.0000       3.313496        90.1648 
 304   0.0000       3.323922        90.4485 
 305   0.0000       3.338817        90.8538 
 306   0.0000       3.351021        91.1859 
 307   0.0000       3.357204        91.3542 
 308   0.0000       3.364294        91.5471 
 309   0.0000       3.406974        92.7085 
 310   0.0000       3.414383        92.9101 
 311   0.0000       3.425662        93.2170 
 312   0.0000       3.436062        93.5000 
 313   0.0000       3.451815        93.9287 
 314   0.0000       3.469149        94.4003 
 315   0.0000       3.475994        94.5866 
 316   0.0000       3.490518        94.9818 
 317   0.0000       3.498786        95.2068 
 318   0.0000       3.509618        95.5016 
 319   0.0000       3.523605        95.8822 
 320   0.0000       3.540659        96.3462 
 321   0.0000       3.544207        96.4428 
 322   0.0000       3.565689        97.0273 
 323   0.0000       3.582524        97.4854 
 324   0.0000       3.590350        97.6984 
 325   0.0000       3.599695        97.9527 
 326   0.0000       3.613717        98.3342 
 327   0.0000       3.624440        98.6260 
 328   0.0000       3.660925        99.6188 
 329   0.0000       3.691890       100.4614 
 330   0.0000       3.714280       101.0707 
 331   0.0000       3.736561       101.6770 
 332   0.0000       3.747337       101.9702 
 333   0.0000       3.758134       102.2640 
 334   0.0000       3.779155       102.8360 
 335   0.0000       3.792880       103.2095 
 336   0.0000       3.806269       103.5738 
 337   0.0000       3.844790       104.6220 
 338   0.0000       3.853039       104.8465 
 339   0.0000       3.859837       105.0315 
 340   0.0000       3.883120       105.6651 
 341   0.0000       3.894441       105.9731 
 342   0.0000       3.916559       106.5750 
 343   0.0000       3.940848       107.2359 
 344   0.0000       3.964783       107.8872 
 345   0.0000       3.994597       108.6985 
 346   0.0000       4.019354       109.3722 
 347   0.0000       4.031491       109.7025 
 348   0.0000       4.049898       110.2033 
 349   0.0000       4.072871       110.8285 
 350   0.0000       4.080906       111.0471 
 351   0.0000       4.089664       111.2854 
 352   0.0000       4.130215       112.3889 
 353   0.0000       4.156206       113.0961 
 354   0.0000       4.203426       114.3810 
 355   0.0000       4.234487       115.2262 
 356   0.0000       4.260558       115.9357 
 357   0.0000       4.272188       116.2522 
 358   0.0000       4.279593       116.4537 
 359   0.0000       4.293599       116.8348 
 360   0.0000       4.311883       117.3323 
 361   0.0000       4.323275       117.6423 
 362   0.0000       4.340321       118.1061 
 363   0.0000       4.352525       118.4382 
 364   0.0000       4.387426       119.3879 
 365   0.0000       4.424504       120.3969 
 366   0.0000       4.426357       120.4473 
 367   0.0000       4.513635       122.8223 
 368   0.0000       4.527188       123.1911 
 369   0.0000       4.560896       124.1083 
 370   0.0000       4.632807       126.0651 
 371   0.0000       4.648372       126.4886 
 372   0.0000       4.656390       126.7068 
 373   0.0000       4.697916       127.8368 
 374   0.0000       4.721744       128.4852 
 375   0.0000       4.726119       128.6042 
 376   0.0000       4.804074       130.7255 
 377   0.0000       4.836018       131.5947 
 378   0.0000       4.848397       131.9316 
 379   0.0000       4.863874       132.3527 
 380   0.0000       4.899432       133.3203 
 381   0.0000       4.945412       134.5715 
 382   0.0000       4.948280       134.6495 
 383   0.0000       4.966799       135.1535 
 384   0.0000       5.010782       136.3503 
 385   0.0000       5.058658       137.6531 
 386   0.0000       5.081458       138.2735 
 387   0.0000       5.118181       139.2728 
 388   0.0000       5.134136       139.7069 
 389   0.0000       5.158100       140.3590 
 390   0.0000       5.224895       142.1766 
 391   0.0000       5.252633       142.9314 
 392   0.0000       5.277752       143.6149 
 393   0.0000       5.298726       144.1857 
 394   0.0000       5.302838       144.2976 
 395   0.0000       5.355834       145.7397 
 396   0.0000       5.409621       147.2033 
 397   0.0000       5.437069       147.9502 
 398   0.0000       5.456464       148.4779 
 399   0.0000       5.501413       149.7011 
 400   0.0000       5.530670       150.4972 
 401   0.0000       5.565701       151.4504 
 402   0.0000       5.594445       152.2326 
 403   0.0000       5.634955       153.3349 
 404   0.0000       5.769436       156.9943 
 405   0.0000       5.784373       157.4008 
 406   0.0000       5.799686       157.8175 
 407   0.0000       5.824529       158.4935 
 408   0.0000       5.825504       158.5200 
 409   0.0000       5.827889       158.5849 
 410   0.0000       5.847670       159.1232 
 411   0.0000       5.872059       159.7869 
 412   0.0000       5.894194       160.3892 
 413   0.0000       5.972751       162.5268 
 414   0.0000       6.001892       163.3198 
 415   0.0000       6.068526       165.1330 
 416   0.0000       6.219014       169.2280 
 417   0.0000       6.371772       173.3847 
 418   0.0000       6.481836       176.3797 
 419   0.0000       6.560433       178.5185 
 420   0.0000       6.666827       181.4136 
 421   0.0000       6.733616       183.2310 
 422   0.0000       6.778442       184.4508 
 423   0.0000       6.864805       186.8008 
 424   0.0000       6.878283       187.1676 
 425   0.0000       7.032965       191.3767 
 426   0.0000       7.075939       192.5461 
 427   0.0000       7.102145       193.2592 
 428   0.0000       7.308951       198.8867 
 429   0.0000      22.107278       601.5696 
 430   0.0000      22.296121       606.7083 
 431   0.0000      22.427739       610.2898 
 432   0.0000      22.615961       615.4116 
 433   0.0000      22.672162       616.9409 
 434   0.0000      22.783872       619.9807 
 435   0.0000      22.911002       623.4401 
 436   0.0000      23.319238       634.5487 
 437   0.0000      31.714710       863.0011 
 438   0.0000      43.687555      1188.7988 
 439   0.0000      43.843478      1193.0417 

                    ********************************
                    * MULLIKEN POPULATION ANALYSIS *
                    ********************************

-----------------------
MULLIKEN ATOMIC CHARGES
-----------------------
   0 O :   -0.523115
   1 O :   -0.549123
   2 N :   -0.455205
   3 C :   -0.226202
   4 C :    0.309804
   5 C :   -0.112373
   6 C :   -0.380458
   7 C :   -0.255877
   8 C :    0.221529
   9 C :   -0.227112
  10 C :    0.328412
  11 H :    0.059912
  12 H :    0.064101
  13 H :    0.090591
  14 H :    0.100068
  15 H :    0.012187
  16 H :    0.016040
  17 H :    0.023003
  18 H :    0.187987
  19 H :    0.185328
  20 Cu:    0.130502
Sum of atomic charges:   -1.0000000

--------------------------------
MULLIKEN REDUCED ORBITAL CHARGES
--------------------------------
  0 O s       :     3.825391  s :     3.825391
      pz      :     1.680364  p :     4.670450
      px      :     1.510663
      py      :     1.479422
      dz2     :     0.002974  d :     0.025987
      dxz     :     0.002445
      dyz     :     0.005153
      dx2y2   :     0.006435
      dxy     :     0.008980
      f0      :     0.000159  f :     0.001287
      f+1     :     0.000119
      f-1     :     0.000168
      f+2     :     0.000034
      f-2     :     0.000181
      f+3     :     0.000320
      f-3     :     0.000306
  1 O s       :     3.823540  s :     3.823540
      pz      :     1.667382  p :     4.689607
      px      :     1.307783
      py      :     1.714443
      dz2     :     0.003932  d :     0.034149
      dxz     :     0.007125
      dyz     :     0.003782
      dx2y2   :     0.010981
      dxy     :     0.008330
      f0      :     0.000219  f :     0.001827
      f+1     :     0.000255
      f-1     :     0.000157
      f+2     :     0.000280
      f-2     :     0.000119
      f+3     :     0.000406
      f-3     :     0.000391
  2 N s       :     3.494671  s :     3.494671
      pz      :     1.514743  p :     3.918277
      px      :     1.300940
      py      :     1.102594
      dz2     :     0.004562  d :     0.040030
      dxz     :     0.007882
      dyz     :     0.011651
      dx2y2   :     0.007977
      dxy     :     0.007959
      f0      :     0.000392  f :     0.002227
      f+1     :     0.000301
      f-1     :    -0.000021
      f+2     :     0.000666
      f-2     :     0.000241
      f+3     :     0.000229
      f-3     :     0.000418
  3 C s       :     3.143179  s :     3.143179
      pz      :     0.954354  p :     2.987341
      px      :     1.009281
      py      :     1.023706
      dz2     :     0.010002  d :     0.090156
      dxz     :     0.028982
      dyz     :     0.022272
      dx2y2   :     0.010782
      dxy     :     0.018118
      f0      :     0.000825  f :     0.005526
      f+1     :     0.000947
      f-1     :     0.000436
      f+2     :     0.001348
      f-2     :     0.000536
      f+3     :     0.000494
      f-3     :     0.000940
  4 C s       :     3.115395  s :     3.115395
      pz      :     0.939529  p :     2.431168
      px      :     0.744121
      py      :     0.747518
      dz2     :     0.007038  d :     0.133958
      dxz     :     0.021482
      dyz     :     0.030910
      dx2y2   :     0.037751
      dxy     :     0.036777
      f0      :     0.001419  f :     0.009676
      f+1     :     0.000799
      f-1     :     0.000559
      f+2     :     0.000998
      f-2     :     0.001439
      f+3     :     0.001256
      f-3     :     0.003205
  5 C s       :     3.184313  s :     3.184313
      pz      :     0.940732  p :     2.815484
      px      :     0.803524
      py      :     1.071228
      dz2     :     0.016271  d :     0.105108
      dxz     :     0.025824
      dyz     :     0.022310
      dx2y2   :     0.022627
      dxy     :     0.018076
      f0      :     0.001323  f :     0.007468
      f+1     :     0.001301
      f-1     :     0.000388
      f+2     :     0.001823
      f-2     :     0.000658
      f+3     :     0.000891
      f-3     :     0.001084
  6 C s       :     3.357909  s :     3.357909
      pz      :     1.092972  p :     2.937571
      px      :     1.012224
      py      :     0.832374
      dz2     :     0.005689  d :     0.077976
      dxz     :     0.019958
      dyz     :     0.008423
      dx2y2   :     0.019219
      dxy     :     0.024687
      f0      :     0.001236  f :     0.007003
      f+1     :     0.000817
      f-1     :     0.000590
      f+2     :     0.000672
      f-2     :     0.000756
      f+3     :     0.000856
      f-3     :     0.002076
  7 C s       :     3.239686  s :     3.239686
      pz      :     1.096603  p :     2.919652
      px      :     0.932074
      py      :     0.890976
      dz2     :     0.006934  d :     0.089648
      dxz     :     0.019470
      dyz     :     0.011901
      dx2y2   :     0.016828
      dxy     :     0.034516
      f0      :     0.001200  f :     0.006891
      f+1     :     0.000793
      f-1     :     0.000624
      f+2     :     0.001045
      f-2     :     0.000386
      f+3     :     0.000887
      f-3     :     0.001957
  8 C s       :     3.142186  s :     3.142186
      pz      :     0.931809  p :     2.449223
      px      :     0.656479
      py      :     0.860936
      dz2     :     0.007493  d :     0.172537
      dxz     :     0.034056
      dyz     :     0.035936
      dx2y2   :     0.063018
      dxy     :     0.032033
      f0      :     0.001910  f :     0.014525
      f+1     :     0.000972
      f-1     :     0.001016
      f+2     :     0.001165
      f-2     :     0.002139
      f+3     :     0.002387
      f-3     :     0.004936
  9 C s       :     3.270395  s :     3.270395
      pz      :     1.065691  p :     2.871440
      px      :     0.917808
      py      :     0.887941
      dz2     :     0.005274  d :     0.078190
      dxz     :     0.020649
      dyz     :     0.009370
      dx2y2   :     0.020609
      dxy     :     0.022288
      f0      :     0.001276  f :     0.007086
      f+1     :     0.000813
      f-1     :     0.000595
      f+2     :     0.000765
      f-2     :     0.000751
      f+3     :     0.000920
      f-3     :     0.001966
 10 C s       :     3.088469  s :     3.088469
      pz      :     0.951334  p :     2.396093
      px      :     0.730107
      py      :     0.714652
      dz2     :     0.008227  d :     0.172482
      dxz     :     0.045915
      dyz     :     0.020997
      dx2y2   :     0.032483
      dxy     :     0.064861
      f0      :     0.001914  f :     0.014544
      f+1     :     0.001418
      f-1     :     0.000566
      f+2     :     0.002181
      f-2     :     0.001261
      f+3     :     0.002240
      f-3     :     0.004964
 11 H s       :     0.919018  s :     0.919018
      pz      :     0.007049  p :     0.021070
      px      :     0.005377
      py      :     0.008644
 12 H s       :     0.914818  s :     0.914818
      pz      :     0.007424  p :     0.021081
      px      :     0.004896
      py      :     0.008761
 13 H s       :     0.888739  s :     0.888739
      pz      :     0.007466  p :     0.020670
      px      :     0.003980
      py      :     0.009224
 14 H s       :     0.879238  s :     0.879238
      pz      :     0.007159  p :     0.020694
      px      :     0.004785
      py      :     0.008750
 15 H s       :     0.965828  s :     0.965828
      pz      :     0.005874  p :     0.021985
      px      :     0.005052
      py      :     0.011060
 16 H s       :     0.961910  s :     0.961910
      pz      :     0.006153  p :     0.022050
      px      :     0.006572
      py      :     0.009325
 17 H s       :     0.955081  s :     0.955081
      pz      :     0.005831  p :     0.021915
      px      :     0.005351
      py      :     0.010734
 18 H s       :     0.775810  s :     0.775810
      pz      :     0.013858  p :     0.036203
      px      :     0.008554
      py      :     0.013792
 19 H s       :     0.778464  s :     0.778464
      pz      :     0.013572  p :     0.036208
      px      :     0.009895
      py      :     0.012740
 20 Cus       :     6.708017  s :     6.708017
      pz      :     4.090531  p :    12.309036
      px      :     4.090186
      py      :     4.128319
      dz2     :     1.917224  d :     9.852116
      dxz     :     1.999765
      dyz     :     1.987467
      dx2y2   :     1.953968
      dxy     :     1.993692
      f0      :     0.000031  f :     0.000329
      f+1     :     0.000021
      f-1     :     0.000044
      f+2     :     0.000032
      f-2     :     0.000038
      f+3     :     0.000088
      f-3     :     0.000075


                     *******************************
                     * LOEWDIN POPULATION ANALYSIS *
                     *******************************

----------------------
LOEWDIN ATOMIC CHARGES
----------------------
   0 O :   -0.058192
   1 O :   -0.038335
   2 N :   -0.185060
   3 C :   -0.264522
   4 C :   -0.202727
   5 C :   -0.344049
   6 C :   -0.138529
   7 C :   -0.194067
   8 C :   -0.307863
   9 C :   -0.164459
  10 C :   -0.303129
  11 H :    0.129166
  12 H :    0.130307
  13 H :    0.126553
  14 H :    0.129140
  15 H :    0.131873
  16 H :    0.124090
  17 H :    0.128336
  18 H :    0.138536
  19 H :    0.137649
  20 Cu:    0.025283

-------------------------------
LOEWDIN REDUCED ORBITAL CHARGES
-------------------------------
  0 O s       :     3.422996  s :     3.422996
      pz      :     1.580620  p :     4.567405
      px      :     1.486200
      py      :     1.500585
      dz2     :     0.007296  d :     0.063564
      dxz     :     0.007031
      dyz     :     0.009315
      dx2y2   :     0.018316
      dxy     :     0.021605
      f0      :     0.000390  f :     0.004229
      f+1     :     0.000314
      f-1     :     0.000459
      f+2     :     0.000125
      f-2     :     0.000596
      f+3     :     0.001090
      f-3     :     0.001254
  1 O s       :     3.373896  s :     3.373896
      pz      :     1.565415  p :     4.572854
      px      :     1.369230
      py      :     1.638209
      dz2     :     0.009602  d :     0.085671
      dxz     :     0.017609
      dyz     :     0.007664
      dx2y2   :     0.028327
      dxy     :     0.022469
      f0      :     0.000520  f :     0.005914
      f+1     :     0.000717
      f-1     :     0.000372
      f+2     :     0.000957
      f-2     :     0.000385
      f+3     :     0.001370
      f-3     :     0.001594
  2 N s       :     3.098935  s :     3.098935
      pz      :     1.467282  p :     3.931659
      px      :     1.311381
      py      :     1.152996
      dz2     :     0.009747  d :     0.144043
      dxz     :     0.027338
      dyz     :     0.037254
      dx2y2   :     0.035338
      dxy     :     0.034367
      f0      :     0.001322  f :     0.010423
      f+1     :     0.000942
      f-1     :     0.000573
      f+2     :     0.002706
      f-2     :     0.000947
      f+3     :     0.001358
      f-3     :     0.002574
  3 C s       :     2.776103  s :     2.776103
      pz      :     1.008320  p :     3.042756
      px      :     1.020433
      py      :     1.014004
      dz2     :     0.050921  d :     0.406344
      dxz     :     0.111924
      dyz     :     0.100304
      dx2y2   :     0.075420
      dxy     :     0.067774
      f0      :     0.007047  f :     0.039318
      f+1     :     0.007020
      f-1     :     0.002828
      f+2     :     0.006295
      f-2     :     0.005061
      f+3     :     0.004198
      f-3     :     0.006869
  4 C s       :     2.703445  s :     2.703445
      pz      :     0.888088  p :     2.897698
      px      :     0.959166
      py      :     1.050444
      dz2     :     0.037025  d :     0.542264
      dxz     :     0.070657
      dyz     :     0.104556
      dx2y2   :     0.175716
      dxy     :     0.154310
      f0      :     0.004068  f :     0.059320
      f+1     :     0.004295
      f-1     :     0.004790
      f+2     :     0.006048
      f-2     :     0.009375
      f+3     :     0.009988
      f-3     :     0.020756
  5 C s       :     2.801533  s :     2.801533
      pz      :     1.036442  p :     3.013057
      px      :     0.921575
      py      :     1.055040
      dz2     :     0.065564  d :     0.475535
      dxz     :     0.129652
      dyz     :     0.103018
      dx2y2   :     0.109935
      dxy     :     0.067366
      f0      :     0.009869  f :     0.053924
      f+1     :     0.010957
      f-1     :     0.002856
      f+2     :     0.009579
      f-2     :     0.005178
      f+3     :     0.006787
      f-3     :     0.008700
  6 C s       :     2.757006  s :     2.757006
      pz      :     0.964161  p :     2.965412
      px      :     1.017830
      py      :     0.983421
      dz2     :     0.029908  d :     0.373772
      dxz     :     0.068636
      dyz     :     0.027756
      dx2y2   :     0.124835
      dxy     :     0.122636
      f0      :     0.003185  f :     0.042340
      f+1     :     0.004340
      f-1     :     0.003308
      f+2     :     0.005049
      f-2     :     0.005042
      f+3     :     0.008235
      f-3     :     0.013181
  7 C s       :     2.756343  s :     2.756343
      pz      :     0.978251  p :     2.994368
      px      :     1.024564
      py      :     0.991553
      dz2     :     0.032294  d :     0.400296
      dxz     :     0.067169
      dyz     :     0.040964
[...]
      dxz     :     0.020180
      dyz     :     0.012071
      dx2y2   :     0.018316
      dxy     :     0.033847
      f0      :     0.001201  f :     0.006826
      f+1     :     0.000820
      f-1     :     0.000574
      f+2     :     0.001005
      f-2     :     0.000441
      f+3     :     0.000853
      f-3     :     0.001933
  8 C s       :     3.159152  s :     3.159152
      pz      :     0.936429  p :     2.362148
      px      :     0.590180
      py      :     0.835540
      dz2     :     0.007595  d :     0.169857
      dxz     :     0.030738
      dyz     :     0.035717
      dx2y2   :     0.057923
      dxy     :     0.037885
      f0      :     0.001848  f :     0.014292
      f+1     :     0.000960
      f-1     :     0.001119
      f+2     :     0.001258
      f-2     :     0.001945
      f+3     :     0.002386
      f-3     :     0.004777
  9 C s       :     3.260521  s :     3.260521
      pz      :     1.083868  p :     2.873595
      px      :     0.900030
      py      :     0.889697
      dz2     :     0.005527  d :     0.076939
      dxz     :     0.020341
      dyz     :     0.008626
      dx2y2   :     0.020474
      dxy     :     0.021971
      f0      :     0.001235  f :     0.006993
      f+1     :     0.000876
      f-1     :     0.000597
      f+2     :     0.000756
      f-2     :     0.000724
      f+3     :     0.001005
      f-3     :     0.001800
 10 C s       :     3.184307  s :     3.184307
      pz      :     0.937851  p :     2.392315
      px      :     0.690101
      py      :     0.764363
      dz2     :     0.009340  d :     0.167174
      dxz     :     0.045698
      dyz     :     0.018391
      dx2y2   :     0.031667
      dxy     :     0.062078
      f0      :     0.001805  f :     0.014230
      f+1     :     0.001523
      f-1     :     0.000602
      f+2     :     0.002052
      f-2     :     0.001257
      f+3     :     0.002431
      f-3     :     0.004560
 11 H s       :     0.923811  s :     0.923811
      pz      :     0.006141  p :     0.020785
      px      :     0.005465
      py      :     0.009179
 12 H s       :     0.925720  s :     0.925720
      pz      :     0.007957  p :     0.020724
      px      :     0.004815
      py      :     0.007951
 13 H s       :     0.888479  s :     0.888479
      pz      :     0.008210  p :     0.020547
      px      :     0.004035
      py      :     0.008301
 14 H s       :     0.878674  s :     0.878674
      pz      :     0.006279  p :     0.020579
      px      :     0.005066
      py      :     0.009234
 15 H s       :     0.970671  s :     0.970671
      pz      :     0.005871  p :     0.021746
      px      :     0.004974
      py      :     0.010901
 16 H s       :     0.964835  s :     0.964835
      pz      :     0.006076  p :     0.021744
      px      :     0.006362
      py      :     0.009306
 17 H s       :     0.962407  s :     0.962407
      pz      :     0.005832  p :     0.021760
      px      :     0.005542
      py      :     0.010386
 18 H s       :     0.777584  s :     0.777584
      pz      :     0.014615  p :     0.035650
      px      :     0.008162
      py      :     0.012873
 19 H s       :     0.779647  s :     0.779647
      pz      :     0.012726  p :     0.035633
      px      :     0.009594
      py      :     0.013313
 20 Cus       :     6.690578  s :     6.690578
      pz      :     4.075787  p :    12.303095
      px      :     4.087348
      py      :     4.139960
      dz2     :     1.924966  d :     9.906973
      dxz     :     1.996749
      dyz     :     2.007840
      dx2y2   :     1.988231
      dxy     :     1.989187
      f0      :     0.000019  f :     0.000217
      f+1     :     0.000021
      f-1     :     0.000026
      f+2     :     0.000022
      f-2     :     0.000018
      f+3     :     0.000056
      f-3     :     0.000056


                     *******************************
                     * LOEWDIN POPULATION ANALYSIS *
                     *******************************

----------------------
LOEWDIN ATOMIC CHARGES
----------------------
   0 O :   -0.024854
   1 O :   -0.025903
   2 N :   -0.195195
   3 C :   -0.265723
   4 C :   -0.204434
   5 C :   -0.346257
   6 C :   -0.152726
   7 C :   -0.200966
   8 C :   -0.313195
   9 C :   -0.181739
  10 C :   -0.315319
  11 H :    0.128677
  12 H :    0.128390
  13 H :    0.126825
  14 H :    0.129150
  15 H :    0.130865
  16 H :    0.123854
  17 H :    0.127286
  18 H :    0.139477
  19 H :    0.138785
  20 Cu:    0.053003

-------------------------------
LOEWDIN REDUCED ORBITAL CHARGES
-------------------------------
  0 O s       :     3.396020  s :     3.396020
      pz      :     1.570908  p :     4.552404
      px      :     1.484090
      py      :     1.497406
      dz2     :     0.007823  d :     0.071621
      dxz     :     0.008249
      dyz     :     0.011324
      dx2y2   :     0.021902
      dxy     :     0.022323
      f0      :     0.000465  f :     0.004808
      f+1     :     0.000338
      f-1     :     0.000519
      f+2     :     0.000222
      f-2     :     0.000669
      f+3     :     0.001163
      f-3     :     0.001432
  1 O s       :     3.396665  s :     3.396665
      pz      :     1.567637  p :     4.552829
      px      :     1.397315
      py      :     1.587876
      dz2     :     0.008101  d :     0.071605
      dxz     :     0.016334
      dyz     :     0.003748
      dx2y2   :     0.023545
      dxy     :     0.019877
      f0      :     0.000449  f :     0.004804
      f+1     :     0.000712
      f-1     :     0.000163
      f+2     :     0.000800
      f-2     :     0.000193
      f+3     :     0.001135
      f-3     :     0.001352
  2 N s       :     3.121459  s :     3.121459
      pz      :     1.483052  p :     3.924317
      px      :     1.274707
      py      :     1.166558
      dz2     :     0.010314  d :     0.139380
      dxz     :     0.026582
      dyz     :     0.033359
      dx2y2   :     0.032582
      dxy     :     0.036543
      f0      :     0.001115  f :     0.010039
      f+1     :     0.000850
      f-1     :     0.000752
      f+2     :     0.002536
      f-2     :     0.000900
      f+3     :     0.001555
      f-3     :     0.002331
  3 C s       :     2.785056  s :     2.785056
      pz      :     1.014041  p :     3.043371
      px      :     1.016367
      py      :     1.012963
      dz2     :     0.053662  d :     0.399678
      dxz     :     0.110313
      dyz     :     0.094099
      dx2y2   :     0.070768
      dxy     :     0.070837
      f0      :     0.006472  f :     0.037617
      f+1     :     0.006439
      f-1     :     0.003006
      f+2     :     0.006242
      f-2     :     0.004911
      f+3     :     0.004602
      f-3     :     0.005944
  4 C s       :     2.711370  s :     2.711370
      pz      :     0.902262  p :     2.907514
      px      :     0.955173
      py      :     1.050080
      dz2     :     0.035224  d :     0.528829
      dxz     :     0.066211
      dyz     :     0.102333
      dx2y2   :     0.172557
      dxy     :     0.152504
      f0      :     0.003961  f :     0.056722
      f+1     :     0.004215
      f-1     :     0.004737
      f+2     :     0.005437
      f-2     :     0.009139
      f+3     :     0.009371
      f-3     :     0.019862
  5 C s       :     2.808606  s :     2.808606
      pz      :     1.043224  p :     3.015816
      px      :     0.913489
      py      :     1.059103
      dz2     :     0.068262  d :     0.471374
      dxz     :     0.128228
      dyz     :     0.096187
      dx2y2   :     0.104799
      dxy     :     0.073899
      f0      :     0.008968  f :     0.050461
      f+1     :     0.008874
      f-1     :     0.003128
      f+2     :     0.009537
      f-2     :     0.004649
      f+3     :     0.007162
      f-3     :     0.008142
  6 C s       :     2.765216  s :     2.765216
      pz      :     0.980740  p :     2.977290
      px      :     1.014498
      py      :     0.982051
      dz2     :     0.030664  d :     0.369941
      dxz     :     0.067738
      dyz     :     0.028753
      dx2y2   :     0.123415
      dxy     :     0.119371
      f0      :     0.003091  f :     0.040279
      f+1     :     0.004253
      f-1     :     0.003316
      f+2     :     0.005028
      f-2     :     0.004649
      f+3     :     0.007763
      f-3     :     0.012179
  7 C s       :     2.762997  s :     2.762997
      pz      :     0.978850  p :     2.996434
      px      :     1.025997
      py      :     0.991587
      dz2     :     0.031488  d :     0.399473
      dxz     :     0.070513
      dyz     :     0.041013
      dx2y2   :     0.107638
      dxy     :     0.148820
      f0      :     0.003016  f :     0.042062
      f+1     :     0.004194
      f-1     :     0.003522
      f+2     :     0.007408
      f-2     :     0.002955
      f+3     :     0.007787
      f-3     :     0.013181
  8 C s       :     2.729817  s :     2.729817
      pz      :     0.872055  p :     2.788005
      px      :     0.996028
      py      :     0.919922
      dz2     :     0.055040  d :     0.702858
      dxz     :     0.097818
      dyz     :     0.118694
      dx2y2   :     0.231014
      dxy     :     0.200291
      f0      :     0.006176  f :     0.092516
      f+1     :     0.005927
      f-1     :     0.008374
      f+2     :     0.008579
      f-2     :     0.014965
      f+3     :     0.016707
      f-3     :     0.031788
  9 C s       :     2.772328  s :     2.772328
      pz      :     0.973029  p :     2.994777
      px      :     1.038058
      py      :     0.983690
      dz2     :     0.031060  d :     0.373989
      dxz     :     0.073633
      dyz     :     0.026210
      dx2y2   :     0.113335
      dxy     :     0.129752
      f0      :     0.003046  f :     0.040644
      f+1     :     0.004531
      f-1     :     0.003341
      f+2     :     0.005210
      f-2     :     0.004522
      f+3     :     0.008092
      f-3     :     0.011902
 10 C s       :     2.730147  s :     2.730147
      pz      :     0.869896  p :     2.791382
      px      :     0.887862
      py      :     1.033624
      dz2     :     0.058585  d :     0.701450
      dxz     :     0.148135
      dyz     :     0.065995
      dx2y2   :     0.197414
      dxy     :     0.231321
      f0      :     0.006006  f :     0.092339
      f+1     :     0.010083
      f-1     :     0.004561
      f+2     :     0.015629
      f-2     :     0.008406
      f+3     :     0.016377
      f-3     :     0.031277
 11 H s       :     0.814601  s :     0.814601
      pz      :     0.015913  p :     0.056722
      px      :     0.014329
      py      :     0.026480
 12 H s       :     0.814609  s :     0.814609
      pz      :     0.020742  p :     0.057001
      px      :     0.012762
      py      :     0.023497
 13 H s       :     0.815310  s :     0.815310
      pz      :     0.022380  p :     0.057866
      px      :     0.010622
      py      :     0.024863
 14 H s       :     0.812679  s :     0.812679
      pz      :     0.017269  p :     0.058171
      px      :     0.013245
      py      :     0.027657
 15 H s       :     0.810610  s :     0.810610
      pz      :     0.015993  p :     0.058525
      px      :     0.013952
      py      :     0.028579
 16 H s       :     0.817923  s :     0.817923
      pz      :     0.016450  p :     0.058223
      px      :     0.017287
      py      :     0.024486
 17 H s       :     0.814336  s :     0.814336
      pz      :     0.015724  p :     0.058379
      px      :     0.015157
      py      :     0.027497
 18 H s       :     0.753313  s :     0.753313
      pz      :     0.046474  p :     0.107210
      px      :     0.022849
      py      :     0.037887
 19 H s       :     0.754083  s :     0.754083
      pz      :     0.038691  p :     0.107132
      px      :     0.025959
      py      :     0.042482
 20 Cus       :     6.443236  s :     6.443236
      pz      :     4.084540  p :    12.384323
      px      :     4.091124
      py      :     4.208659
      dz2     :     1.964673  d :    10.119155
      dxz     :     2.025025
      dyz     :     2.036743
      dx2y2   :     2.048795
      dxy     :     2.043919
      f0      :     0.000023  f :     0.000284
      f+1     :     0.000023
      f-1     :     0.000036
      f+2     :     0.000028
      f-2     :     0.000023
      f+3     :     0.000078
      f-3     :     0.000073


                      *****************************
                      * MAYER POPULATION ANALYSIS *
                      *****************************

  NA   - Mulliken gross atomic population
  ZA   - Total nuclear charge
  QA   - Mulliken gross atomic charge
  VA   - Mayer's total valence
  BVA  - Mayer's bonded valence
  FA   - Mayer's free valence

  ATOM       NA         ZA         QA         VA         BVA        FA
  0 O      8.5056     8.0000    -0.5056     2.0728     2.0728    -0.0000
  1 O      8.5035     8.0000    -0.5035     2.0729     2.0729     0.0000
  2 N      7.4579     7.0000    -0.4579     2.9467     2.9467    -0.0000
  3 C      6.2162     6.0000    -0.2162     3.8508     3.8508    -0.0000
  4 C      5.7014     6.0000     0.2986     3.5166     3.5166    -0.0000
  5 C      6.1239     6.0000    -0.1239     3.8562     3.8562    -0.0000
  6 C      6.3731     6.0000    -0.3731     3.9765     3.9765     0.0000
  7 C      6.2450     6.0000    -0.2450     3.9393     3.9393     0.0000
  8 C      5.7055     6.0000     0.2945     3.7411     3.7411     0.0000
  9 C      6.2180     6.0000    -0.2180     3.8783     3.8783    -0.0000
 10 C      5.7580     6.0000     0.2420     3.7620     3.7620     0.0000
 11 H      0.9446     1.0000     0.0554     0.9889     0.9889    -0.0000
 12 H      0.9464     1.0000     0.0536     0.9869     0.9869     0.0000
 13 H      0.9090     1.0000     0.0910     0.9879     0.9879     0.0000
 14 H      0.8993     1.0000     0.1007     0.9817     0.9817    -0.0000
 15 H      0.9924     1.0000     0.0076     1.0104     1.0104     0.0000
 16 H      0.9866     1.0000     0.0134     0.9703     0.9703    -0.0000
 17 H      0.9842     1.0000     0.0158     1.0038     1.0038     0.0000
 18 H      0.8132     1.0000     0.1868     0.9603     0.9603    -0.0000
 19 H      0.8153     1.0000     0.1847     0.9607     0.9607    -0.0000
 20 Cu    28.9009    29.0000     0.0991     1.3936     1.3936     0.0000

  Mayer bond orders larger than 0.100000
B(  0-O ,  8-C ) :   1.2228 B(  0-O , 20-Cu) :   0.6978 B(  1-O , 10-C ) :   1.2471 
B(  1-O , 20-Cu) :   0.6952 B(  2-N ,  5-C ) :   1.0134 B(  2-N , 18-H ) :   0.9447 
B(  2-N , 19-H ) :   0.9454 B(  3-C ,  4-C ) :   0.9002 B(  3-C ,  5-C ) :   0.9969 
B(  3-C , 11-H ) :   0.9484 B(  3-C , 12-H ) :   0.9442 B(  4-C ,  6-C ) :   1.2699 
B(  4-C ,  7-C ) :   1.3396 B(  5-C , 13-H ) :   0.9549 B(  5-C , 14-H ) :   0.9524 
B(  6-C ,  8-C ) :   1.4052 B(  6-C , 15-H ) :   0.9933 B(  7-C ,  9-C ) :   1.3454 
B(  7-C , 16-H ) :   0.9918 B(  8-C , 10-C ) :   1.0310 B(  9-C , 10-C ) :   1.3620 
B(  9-C , 17-H ) :   0.9789 

-------
TIMINGS
-------

Total SCF time: 0 days 0 hours 0 min 13 sec 

Total time                  ....      13.159 sec
Sum of individual times     ....      12.725 sec  ( 96.7%)

Fock matrix formation       ....      10.531 sec  ( 80.0%)
  Split-RI-J                ....       4.857 sec  ( 46.1% of F)
  XC integration            ....       5.503 sec  ( 52.3% of F)
    Basis function eval.    ....       1.370 sec  ( 24.9% of XC)
    Density eval.           ....       2.182 sec  ( 39.6% of XC)
    XC-Functional eval.     ....       0.134 sec  (  2.4% of XC)
    XC-Potential eval.      ....       1.210 sec  ( 22.0% of XC)
Diagonalization             ....       0.977 sec  (  7.4%)
Density matrix formation    ....       0.031 sec  (  0.2%)
Population analysis         ....       0.052 sec  (  0.4%)
Initial guess               ....       0.065 sec  (  0.5%)
Orbital Transformation      ....       0.000 sec  (  0.0%)
Orbital Orthonormalization  ....       0.054 sec  (  0.4%)
DIIS solution               ....       0.463 sec  (  3.5%)
Grid generation             ....       0.607 sec  (  4.6%)

Maximum memory used throughout the entire SCF-calculation: 51.7 MB


-------------------------------------------------------------------------------
                          DFT DISPERSION CORRECTION                            
                                                                               
                              DFTD3 V3.1  Rev 1                                
                          USING Becke-Johnson damping                          
-------------------------------------------------------------------------------
The PBE functional is recognized
Active option DFTDOPT                   ...         4   

molecular C6(AA) [au] = 5941.821472 


            DFT-D V3
 parameters
 s6 scaling factor         :     1.0000 
 a1 scaling factor         :     0.4289 
 s8 scaling factor         :     0.7875 
 a2 scaling factor         :     4.4407 
 ad hoc parameters k1-k3   :    16.0000     1.3333    -4.0000 

 Edisp/kcal,au: -14.724188982390  -0.023464486227 
 E6   /kcal   : -10.188266052 
 E8   /kcal   :  -4.535922930 
 % E8         :  30.805927143 

-------------------------   ----------------
Dispersion correction           -0.023464486
-------------------------   ----------------


-------------------------   --------------------
FINAL SINGLE POINT ENERGY     -2155.424636630402
-------------------------   --------------------

                                *** OPTIMIZATION RUN DONE ***

                            ***************************************
                            *     ORCA property calculations      *
                            ***************************************

                                    ---------------------
                                    Active property flags
                                    ---------------------
   (+) Dipole Moment


------------------------------------------------------------------------------
                       ORCA ELECTRIC PROPERTIES CALCULATION
------------------------------------------------------------------------------

Dipole Moment Calculation                       ... on
Quadrupole Moment Calculation                   ... off
Polarizability Calculation                      ... off
GBWName                                         ... ex.gbw
Electron density                                ... ex.scfp
The origin for moment calculation is the CENTER OF MASS  = (-2.164333,  0.695354  0.213348)

-------------
DIPOLE MOMENT
-------------
                                X             Y             Z
Electronic contribution:    -41.84711       9.92946       3.33476
Nuclear contribution   :     42.09289      -9.60564      -3.62147
                        -----------------------------------------
Total Dipole Moment    :      0.24578       0.32382      -0.28670
                        -----------------------------------------
Magnitude (a.u.)       :      0.49746
Magnitude (Debye)      :      1.26444



--------------------
Rotational spectrum 
--------------------
 
Rotational constants in cm-1:     0.070502     0.010212     0.009199 
Rotational constants in MHz :  2113.604728   306.133769   275.793107 

 Dipole components along the rotational axes: 
x,y,z [a.u.] :     0.209949     0.324888     0.312782 
x,y,z [Debye]:     0.533648     0.825800     0.795030 

 

Timings for individual modules:

Sum of individual times         ...      558.906 sec (=   9.315 min)
GTO integral calculation        ...       18.779 sec (=   0.313 min)   3.4 %
SCF iterations                  ...      397.602 sec (=   6.627 min)  71.1 %
SCF Gradient evaluation         ...      141.017 sec (=   2.350 min)  25.2 %
Geometry relaxation             ...        1.508 sec (=   0.025 min)   0.3 %
                             ****ORCA TERMINATED NORMALLY****
TOTAL RUN TIME: 0 days 0 hours 9 minutes 31 seconds 730 msec
