
                                 *****************
                                 * O   R   C   A *
                                 *****************

                                            #,                                       
                                            ###                                      
                                            ####                                     
                                            #####                                    
                                            ######                                   
                                           ########,                                 
                                     ,,################,,,,,                         
                               ,,#################################,,                 
                          ,,##########################################,,             
                       ,#########################################, ''#####,          
                    ,#############################################,,   '####,        
                  ,##################################################,,,,####,       
                ,###########''''           ''''###############################       
              ,#####''   ,,,,##########,,,,          '''####'''          '####       
            ,##' ,,,,###########################,,,                        '##       
           ' ,,###''''                  '''############,,,                           
         ,,##''                                '''############,,,,        ,,,,,,###''
      ,#''                                            '''#######################'''  
     '                                                          ''''####''''         
             ,#######,   #######,   ,#######,      ##                                
            ,#'     '#,  ##    ##  ,#'     '#,    #''#        ######   ,####,        
            ##       ##  ##   ,#'  ##            #'  '#       #        #'  '#        
            ##       ##  #######   ##           ,######,      #####,   #    #        
            '#,     ,#'  ##    ##  '#,     ,#' ,#      #,         ##   #,  ,#        
             '#######'   ##     ##  '#######'  #'      '#     #####' # '####'        



                  #######################################################
                  #                        -***-                        #
                  #          Department of theory and spectroscopy      #
                  #    Directorship and core code : Frank Neese         #
                  #        Max Planck Institute fuer Kohlenforschung    #
                  #                Kaiser Wilhelm Platz 1               #
                  #                 D-45470 Muelheim/Ruhr               #
                  #                      Germany                        #
                  #                                                     #
                  #                  All rights reserved                #
                  #                        -***-                        #
                  #######################################################


                         Program Version 5.0.1 -  RELEASE  -


 With contributions from (in alphabetic order):
   Daniel Aravena         : Magnetic Suceptibility
   Michael Atanasov       : Ab Initio Ligand Field Theory (pilot matlab implementation)
   Alexander A. Auer      : GIAO ZORA, VPT2 properties, NMR spectrum
   Ute Becker             : Parallelization
   Giovanni Bistoni       : ED, misc. LED, open-shell LED, HFLD
   Martin Brehm           : Molecular dynamics
   Dmytro Bykov           : SCF Hessian
   Vijay G. Chilkuri      : MRCI spin determinant printing, contributions to CSF-ICE
   Dipayan Datta          : RHF DLPNO-CCSD density
   Achintya Kumar Dutta   : EOM-CC, STEOM-CC
   Dmitry Ganyushin       : Spin-Orbit,Spin-Spin,Magnetic field MRCI
   Miquel Garcia          : C-PCM and meta-GGA Hessian, CC/C-PCM, Gaussian charge scheme
   Yang Guo               : DLPNO-NEVPT2, F12-NEVPT2, CIM, IAO-localization
   Andreas Hansen         : Spin unrestricted coupled pair/coupled cluster methods
   Benjamin Helmich-Paris : MC-RPA, TRAH-SCF, COSX integrals
   Lee Huntington         : MR-EOM, pCC
   Robert Izsak           : Overlap fitted RIJCOSX, COSX-SCS-MP3, EOM
   Marcus Kettner         : VPT2
   Christian Kollmar      : KDIIS, OOCD, Brueckner-CCSD(T), CCSD density, CASPT2, CASPT2-K
   Simone Kossmann        : Meta GGA functionals, TD-DFT gradient, OOMP2, MP2 Hessian
   Martin Krupicka        : Initial AUTO-CI
   Lucas Lang             : DCDCAS
   Marvin Lechner         : AUTO-CI (C++ implementation), FIC-MRCC
   Dagmar Lenk            : GEPOL surface, SMD
   Dimitrios Liakos       : Extrapolation schemes; Compound Job, initial MDCI parallelization
   Dimitrios Manganas     : Further ROCIS development; embedding schemes
   Dimitrios Pantazis     : SARC Basis sets
   Anastasios Papadopoulos: AUTO-CI, single reference methods and gradients
   Taras Petrenko         : DFT Hessian,TD-DFT gradient, ASA, ECA, R-Raman, ABS, FL, XAS/XES, NRVS
   Peter Pinski           : DLPNO-MP2, DLPNO-MP2 Gradient
   Christoph Reimann      : Effective Core Potentials
   Marius Retegan         : Local ZFS, SOC
   Christoph Riplinger    : Optimizer, TS searches, QM/MM, DLPNO-CCSD(T), (RO)-DLPNO pert. Triples
   Tobias Risthaus        : Range-separated hybrids, TD-DFT gradient, RPA, STAB
   Michael Roemelt        : Original ROCIS implementation
   Masaaki Saitow         : Open-shell DLPNO-CCSD energy and density
   Barbara Sandhoefer     : DKH picture change effects
   Avijit Sen             : IP-ROCIS
   Kantharuban Sivalingam : CASSCF convergence, NEVPT2, FIC-MRCI
   Bernardo de Souza      : ESD, SOC TD-DFT
   Georgi Stoychev        : AutoAux, RI-MP2 NMR, DLPNO-MP2 response
   Willem Van den Heuvel  : Paramagnetic NMR
   Boris Wezisla          : Elementary symmetry handling
   Frank Wennmohs         : Technical directorship


 We gratefully acknowledge several colleagues who have allowed us to
 interface, adapt or use parts of their codes:
   Stefan Grimme, W. Hujo, H. Kruse, P. Pracht,  : VdW corrections, initial TS optimization,
                  C. Bannwarth, S. Ehlert          DFT functionals, gCP, sTDA/sTD-DF
   Ed Valeev, F. Pavosevic, A. Kumar             : LibInt (2-el integral package), F12 methods
   Garnet Chan, S. Sharma, J. Yang, R. Olivares  : DMRG
   Ulf Ekstrom                                   : XCFun DFT Library
   Mihaly Kallay                                 : mrcc  (arbitrary order and MRCC methods)
   Jiri Pittner, Ondrej Demel                    : Mk-CCSD
   Frank Weinhold                                : gennbo (NPA and NBO analysis)
   Christopher J. Cramer and Donald G. Truhlar   : smd solvation model
   Lars Goerigk                                  : TD-DFT with DH, B97 family of functionals
   V. Asgeirsson, H. Jonsson                     : NEB implementation
   FAccTs GmbH                                   : IRC, NEB, NEB-TS, DLPNO-Multilevel, CI-OPT
                                                   MM, QMMM, 2- and 3-layer-ONIOM, Crystal-QMMM,
                                                   LR-CPCM, SF, NACMEs, symmetry and pop. for TD-DFT,
                                                   nearIR, NL-DFT gradient (VV10), updates on ESD,
                                                   ML-optimized integration grids
   S Lehtola, MJT Oliveira, MAL Marques          : LibXC Library
   Liviu Ungur et al                             : ANISO software


 Your calculation uses the libint2 library for the computation of 2-el integrals
 For citations please refer to: http://libint.valeyev.net

 Your ORCA version has been built with support for libXC version: 5.1.0
 For citations please refer to: https://tddft.org/programs/libxc/

 This ORCA versions uses:
   CBLAS   interface :  Fast vector & matrix operations
   LAPACKE interface :  Fast linear algebra routines
   SCALAPACK package :  Parallel linear algebra routines
   Shared memory     :  Shared parallel matrices
   BLAS/LAPACK       :  OpenBLAS 0.3.15  USE64BITINT DYNAMIC_ARCH NO_AFFINITY Haswell SINGLE_THREADED
        Core in use  :  Haswell
   Copyright (c) 2011-2014, The OpenBLAS Project


Your calculation utilizes the atom-pairwise dispersion correction
with the Becke-Johnson damping scheme (D3BJ)
Cite in your paper:
S.Grimme, S.Ehrlich, L.Goerigk, J Comput Chem, (2011), 32, 1456–1465 
S.Grimme, J.Antony, S.Ehrlich and H.Krieg, J.Chem.Phys., 132, (2010), 154104 
   

================================================================================

----- Orbital basis set information -----
Your calculation utilizes the basis: def2-TZVP
   F. Weigend and R. Ahlrichs, Phys. Chem. Chem. Phys. 7, 3297 (2005).

----- AuxJ basis set information -----
Your calculation utilizes the auxiliary basis: def2/J
   F. Weigend, Phys. Chem. Chem. Phys. 8, 1057 (2006).

================================================================================
                                        WARNINGS
                       Please study these warnings very carefully!
================================================================================


WARNING: The environment variable RSH_COMMAND is not set!
  ===> : All Displacements for the Numerical Hessian calculation
         will be started on localhost

WARNING: Geometry Optimization
  ===> : Switching off AutoStart
         For restart on a previous wavefunction, please use MOREAD

INFO   : the flag for use of the SHARK integral package has been found!

================================================================================
                                       INPUT FILE
================================================================================
NAME = ex.inp
|  1> ! PBE D3 def2-TZVP opt numfreq
|  2> 
|  3> %base "M0001"
|  4> %pal nprocs=8 end
|  5> %geom maxiter=75 end
|  6> * xyz 1 1
|  7> C       -1.224823     -1.587242      0.220921
|  8> C       -0.017892      0.791629     -0.642482
|  9> C       -1.950120     -0.403966      0.185336
| 10> C        0.121085     -1.577659     -0.164105
| 11> C        0.736243     -0.388929     -0.594533
| 12> C       -1.345335      0.773733     -0.239305
| 13> O       -3.261213     -0.341801      0.559007
| 14> O       -2.048891      1.941679     -0.258944
| 15> C        2.199890     -0.366462     -0.959628
| 16> C        3.105051     -0.278056      0.271559
| 17> N        2.816475      0.949776      1.061500
| 18> H        1.843695      0.946388      1.405002
| 19> H        3.427806      1.024026      1.884278
| 20> H        2.935367      1.805323      0.503860
| 21> H       -1.684210     -2.518465      0.541070
| 22> H        0.403518      1.727905     -0.999767
| 23> H        0.676081     -2.514793     -0.137679
| 24> H       -3.584019     -1.243249      0.736823
| 25> H       -2.961362      1.693307     -0.000448
| 26> H        2.402267      0.475666     -1.633564
| 27> H        2.443113     -1.272673     -1.527915
| 28> H        2.960421     -1.124636      0.950005
| 29> H        4.158241     -0.224542     -0.019249
| 30> *
| 31> 
| 32>                          ****END OF INPUT****
================================================================================

                       *****************************
                       * Geometry Optimization Run *
                       *****************************

Geometry optimization settings:
Update method            Update   .... BFGS
Choice of coordinates    CoordSys .... Z-matrix Internals
Initial Hessian          InHess   .... Almoef's Model

Convergence Tolerances:
Energy Change            TolE     ....  5.0000e-06 Eh
Max. Gradient            TolMAXG  ....  3.0000e-04 Eh/bohr
RMS Gradient             TolRMSG  ....  1.0000e-04 Eh/bohr
Max. Displacement        TolMAXD  ....  4.0000e-03 bohr
RMS Displacement         TolRMSD  ....  2.0000e-03 bohr
Strict Convergence                ....  False
------------------------------------------------------------------------------
                        ORCA OPTIMIZATION COORDINATE SETUP
------------------------------------------------------------------------------

The optimization will be done in new redundant internal coordinates
Making redundant internal coordinates   ...  (new redundants) done
Evaluating the initial hessian          ...  (Almloef) done
Evaluating the coordinates              ...  done
Calculating the B-matrix                .... done
Calculating the G-matrix                .... done
Diagonalizing the G-matrix              .... done
Small eigenvalue found = 1.301e-02
The first mode is                       ....   50
The number of degrees of freedom        ....   63

    -----------------------------------------------------------------
                    Redundant Internal Coordinates


    -----------------------------------------------------------------
         Definition                    Initial Value    Approx d2E/dq
    -----------------------------------------------------------------
      1. B(C   2,C   0)                  1.3883         0.628638   
      2. B(C   3,C   0)                  1.3999         0.602414   
      3. B(C   4,C   3)                  1.4060         0.589184   
      4. B(C   4,C   1)                  1.4017         0.598532   
      5. B(C   5,C   2)                  1.3903         0.624005   
      6. B(C   5,C   1)                  1.3874         0.630711   
      7. B(O   6,C   2)                  1.3647         0.614057   
      8. B(O   7,C   5)                  1.3636         0.616530   
      9. B(C   8,C   4)                  1.5087         0.404036   
     10. B(C   9,C   8)                  1.5307         0.372655   
     11. B(N  10,C   9)                  1.4882         0.390069   
     12. B(H  11,N  10)                  1.0317         0.399623   
     13. B(H  12,N  10)                  1.0277         0.405442   
     14. B(H  13,N  10)                  1.0281         0.404822   
     15. B(H  14,C   0)                  1.0866         0.364621   
     16. B(H  15,C   1)                  1.0871         0.363917   
     17. B(H  16,C   3)                  1.0895         0.360805   
     18. B(H  17,O   6)                  0.9739         0.494119   
     19. B(H  18,O   7)                  0.9804         0.482479   
     20. B(H  19,C   8)                  1.0974         0.350420   
     21. B(H  20,C   8)                  1.0970         0.351007   
     22. B(H  21,C   9)                  1.0945         0.354211   
     23. B(H  22,C   9)                  1.0939         0.354963   
     24. A(C   3,C   0,H  14)          119.5616         0.351937   
     25. A(C   2,C   0,C   3)          119.2998         0.432901   
     26. A(C   2,C   0,H  14)          121.1386         0.354485   
     27. A(C   4,C   1,H  15)          121.8741         0.351438   
     28. A(C   5,C   1,H  15)          118.5213         0.354567   
     29. A(C   4,C   1,C   5)          119.6005         0.432654   
     30. A(C   0,C   2,C   5)          120.1672         0.435653   
     31. A(C   0,C   2,O   6)          122.2558         0.431552   
     32. A(C   5,C   2,O   6)          117.5769         0.430979   
     33. A(C   0,C   3,H  16)          118.5028         0.351312   
     34. A(C   0,C   3,C   4)          120.7060         0.427893   
     35. A(C   4,C   3,H  16)          120.7841         0.349997   
     36. A(C   3,C   4,C   8)          120.7407         0.398598   
     37. A(C   1,C   4,C   8)          120.0757         0.399703   
     38. A(C   1,C   4,C   3)          119.1549         0.427397   
     39. A(C   1,C   5,C   2)          121.0549         0.435911   
     40. A(C   2,C   5,O   7)          120.3626         0.431291   
     41. A(C   1,C   5,O   7)          118.5812         0.432120   
     42. A(C   2,O   6,H  17)          109.0426         0.366287   
     43. A(C   5,O   7,H  18)          105.0360         0.365046   
     44. A(C   9,C   8,H  19)          109.9125         0.322741   
     45. A(C   4,C   8,H  19)          109.8130         0.327058   
     46. A(C   4,C   8,C   9)          112.3284         0.368107   
     47. A(C   4,C   8,H  20)          109.1580         0.327148   
     48. A(H  19,C   8,H  20)          105.9562         0.288440   
     49. A(C   9,C   8,H  20)          109.4687         0.322830   
     50. A(C   8,C   9,N  10)          111.0954         0.363615   
     51. A(H  21,C   9,H  22)          109.2599         0.289435   
     52. A(N  10,C   9,H  22)          106.7043         0.323911   
     53. A(C   8,C   9,H  22)          110.9978         0.323424   
     54. A(N  10,C   9,H  21)          106.4695         0.323798   
     55. A(C   8,C   9,H  21)          112.0723         0.323312   
     56. A(C   9,N  10,H  11)          110.9077         0.327485   
     57. A(H  12,N  10,H  13)          107.7772         0.296965   
     58. A(H  11,N  10,H  13)          106.9996         0.296285   
     59. A(C   9,N  10,H  13)          112.0997         0.328184   
     60. A(H  11,N  10,H  12)          107.1317         0.296357   
     61. A(C   9,N  10,H  12)          111.6667         0.328267   
     62. D(O   6,C   2,C   0,C   3)   -179.3802         0.027393   
     63. D(O   6,C   2,C   0,H  14)      0.6816         0.027393   
     64. D(C   5,C   2,C   0,C   3)      0.5234         0.027393   
     65. D(C   5,C   2,C   0,H  14)   -179.4148         0.027393   
     66. D(H  16,C   3,C   0,H  14)      0.3507         0.025029   
     67. D(C   4,C   3,C   0,C   2)     -0.5463         0.025029   
     68. D(H  16,C   3,C   0,C   2)   -179.5885         0.025029   
     69. D(C   4,C   3,C   0,H  14)    179.3929         0.025029   
     70. D(C   1,C   4,C   3,H  16)    178.6280         0.023886   
     71. D(C   8,C   4,C   1,H  15)      4.0303         0.024690   
     72. D(C   1,C   4,C   3,C   0)     -0.3923         0.023886   
     73. D(C   3,C   4,C   1,C   5)      1.3530         0.024690   
     74. D(C   8,C   4,C   1,C   5)   -176.7128         0.024690   
     75. D(C   8,C   4,C   3,C   0)    177.6603         0.023886   
     76. D(C   3,C   4,C   1,H  15)   -177.9039         0.024690   
     77. D(C   8,C   4,C   3,H  16)     -3.3195         0.023886   
     78. D(O   7,C   5,C   2,O   6)      0.7833         0.026965   
     79. D(C   1,C   5,C   2,O   6)   -179.6400         0.026965   
     80. D(O   7,C   5,C   1,H  15)     -2.5334         0.027585   
     81. D(O   7,C   5,C   1,C   4)    178.1847         0.027585   
     82. D(C   1,C   5,C   2,C   0)      0.4520         0.026965   
     83. D(O   7,C   5,C   2,C   0)   -179.1248         0.026965   
     84. D(C   2,C   5,C   1,H  15)    177.8824         0.027585   
     85. D(C   2,C   5,C   1,C   4)     -1.3994         0.027585   
     86. D(H  17,O   6,C   2,C   5)    173.7897         0.027626   
     87. D(H  17,O   6,C   2,C   0)     -6.3043         0.027626   
     88. D(H  18,O   7,C   5,C   2)     -4.1402         0.027865   
     89. D(H  18,O   7,C   5,C   1)    176.2727         0.027865   
     90. D(H  19,C   8,C   4,C   1)    -24.9824         0.012105   
     91. D(C   9,C   8,C   4,C   3)    -80.3793         0.012105   
     92. D(C   9,C   8,C   4,C   1)     97.6554         0.012105   
     93. D(H  20,C   8,C   4,C   3)     41.2296         0.012105   
     94. D(H  20,C   8,C   4,C   1)   -140.7357         0.012105   
     95. D(H  19,C   8,C   4,C   3)    156.9829         0.012105   
     96. D(H  22,C   9,C   8,H  19)    -55.2456         0.011092   
     97. D(H  22,C   9,C   8,C   4)   -177.8273         0.011092   
     98. D(H  21,C   9,C   8,H  20)    -61.7311         0.011092   
     99. D(H  21,C   9,C   8,H  19)   -177.7181         0.011092   
    100. D(H  21,C   9,C   8,C   4)     59.7003         0.011092   
    101. D(N  10,C   9,C   8,H  20)    179.3002         0.011092   
    102. D(N  10,C   9,C   8,H  19)     63.3133         0.011092   
    103. D(H  22,C   9,C   8,H  20)     60.7414         0.011092   
    104. D(N  10,C   9,C   8,C   4)    -59.2684         0.011092   
    105. D(H  13,N  10,C   9,H  22)     62.8926         0.013917   
    106. D(H  13,N  10,C   9,H  21)    179.4977         0.013917   
    107. D(H  13,N  10,C   9,C   8)    -58.2228         0.013917   
    108. D(H  12,N  10,C   9,H  22)    -58.1646         0.013917   
    109. D(H  12,N  10,C   9,H  21)     58.4405         0.013917   
    110. D(H  12,N  10,C   9,C   8)   -179.2800         0.013917   
    111. D(H  11,N  10,C   9,H  22)   -177.5755         0.013917   
    112. D(H  11,N  10,C   9,H  21)    -60.9704         0.013917   
    113. D(H  11,N  10,C   9,C   8)     61.3090         0.013917   
    -----------------------------------------------------------------

Number of atoms                         .... 23
Number of degrees of freedom            .... 113

         *************************************************************
         *                GEOMETRY OPTIMIZATION CYCLE   1            *
         *************************************************************
---------------------------------
CARTESIAN COORDINATES (ANGSTROEM)
---------------------------------
  C     -1.224823   -1.587242    0.220921
  C     -0.017892    0.791629   -0.642482
  C     -1.950120   -0.403966    0.185336
  C      0.121085   -1.577659   -0.164105
  C      0.736243   -0.388929   -0.594533
  C     -1.345335    0.773733   -0.239305
  O     -3.261213   -0.341801    0.559007
  O     -2.048891    1.941679   -0.258944
  C      2.199890   -0.366462   -0.959628
  C      3.105051   -0.278056    0.271559
  N      2.816475    0.949776    1.061500
  H      1.843695    0.946388    1.405002
  H      3.427806    1.024026    1.884278
  H      2.935367    1.805323    0.503860
  H     -1.684210   -2.518465    0.541070
  H      0.403518    1.727905   -0.999767
  H      0.676081   -2.514793   -0.137679
  H     -3.584019   -1.243249    0.736823
  H     -2.961362    1.693307   -0.000448
  H      2.402267    0.475666   -1.633564
  H      2.443113   -1.272673   -1.527915
  H      2.960421   -1.124636    0.950005
  H      4.158241   -0.224542   -0.019249

----------------------------
CARTESIAN COORDINATES (A.U.)
----------------------------
  NO LB      ZA    FRAG     MASS         X           Y           Z
   0 C     6.0000    0    12.011   -2.314580   -2.999453    0.417480
   1 C     6.0000    0    12.011   -0.033811    1.495962   -1.214115
   2 C     6.0000    0    12.011   -3.685193   -0.763385    0.350234
   3 C     6.0000    0    12.011    0.228817   -2.981343   -0.310114
   4 C     6.0000    0    12.011    1.391298   -0.734969   -1.123505
   5 C     6.0000    0    12.011   -2.542315    1.462143   -0.452221
   6 O     8.0000    0    15.999   -6.162799   -0.645910    1.056370
   7 O     8.0000    0    15.999   -3.871843    3.669242   -0.489333
   8 C     6.0000    0    12.011    4.157190   -0.692513   -1.813434
   9 C     6.0000    0    12.011    5.867696   -0.525450    0.513172
  10 N     7.0000    0    14.007    5.322366    1.794817    2.005944
  11 H     1.0000    0     1.008    3.484079    1.788414    2.655069
  12 H     1.0000    0     1.008    6.477615    1.935129    3.560769
  13 H     1.0000    0     1.008    5.547040    3.411566    0.952157
  14 H     1.0000    0     1.008   -3.182696   -4.759209    1.022474
  15 H     1.0000    0     1.008    0.762539    3.265267   -1.889286
  16 H     1.0000    0     1.008    1.277608   -4.752270   -0.260176
  17 H     1.0000    0     1.008   -6.772814   -2.349400    1.392394
  18 H     1.0000    0     1.008   -5.596163    3.199886   -0.000847
  19 H     1.0000    0     1.008    4.539627    0.898878   -3.086989
  20 H     1.0000    0     1.008    4.616814   -2.405003   -2.887341
  21 H     1.0000    0     1.008    5.594385   -2.125254    1.795249
  22 H     1.0000    0     1.008    7.857937   -0.424323   -0.036375

--------------------------------
INTERNAL COORDINATES (ANGSTROEM)
--------------------------------
 C      0   0   0     0.000000000000     0.00000000     0.00000000
 C      1   0   0     2.803778595719     0.00000000     0.00000000
 C      1   2   0     1.388331416705    59.59269746     0.00000000
 C      1   2   3     1.399930426496    59.71135100   180.75295956
 C      2   1   3     1.401690371013    60.42683223   179.05036051
 C      2   1   3     1.387435360078    59.18404585     0.22413006
 O      3   1   2     1.364719516280   122.25581952   179.87422441
 O      6   2   1     1.363625533045   118.58115365   179.35881916
 C      5   2   1     1.508662210610   120.07571709   182.12785618
 C      9   5   2     1.530670926661   112.32835392    97.65536973
 N     10   9   5     1.488238660794   111.09544455   300.73161141
 H     11  10   9     1.031652088132   110.90765575    61.30903645
 H     11  10   9     1.027717028829   111.66669474   180.71998234
 H     11  10   9     1.028133428341   112.09968410   301.77716280
 H      1   2   3     1.086603917579   178.99207118   136.71758444
 H      2   1   3     1.087130032471   177.17724352   324.12847282
 H      4   1   2     1.089467313621   118.50282347   181.15612753
 H      7   3   1     0.973874088471   109.04257295   353.69572103
 H      8   6   2     0.980363278709   105.03598478   176.27270634
 H      9   5   2     1.097417764850   109.81300857   335.01756001
 H      9   5   2     1.096962131807   109.15803676   219.26426810
 H     10   9   5     1.094488240328   112.07227054    59.70025548
 H     10   9   5     1.093911430217   110.99782088   182.17273376

---------------------------
INTERNAL COORDINATES (A.U.)
---------------------------
 C      0   0   0     0.000000000000     0.00000000     0.00000000
 C      1   0   0     5.298373686059     0.00000000     0.00000000
 C      1   2   0     2.623566160691    59.59269746     0.00000000
 C      1   2   3     2.645485112621    59.71135100   180.75295956
 C      2   1   3     2.648810925769    60.42683223   179.05036051
 C      2   1   3     2.621872859065    59.18404585     0.22413006
 O      3   1   2     2.578946135386   122.25581952   179.87422441
 O      6   2   1     2.576878806678   118.58115365   179.35881916
 C      5   2   1     2.850958406649   120.07571709   182.12785618
 C      9   5   2     2.892548852545   112.32835392    97.65536973
 N     10   9   5     2.812363490814   111.09544455   300.73161141
 H     11  10   9     1.949539912058   110.90765575    61.30903645
 H     11  10   9     1.942103727654   111.66669474   180.71998234
 H     11  10   9     1.942890608695   112.09968410   301.77716280
 H      1   2   3     2.053383820271   178.99207118   136.71758444
 H      2   1   3     2.054378033332   177.17724352   324.12847282
 H      4   1   2     2.058794854602   118.50282347   181.15612753
 H      7   3   1     1.840355316133   109.04257295   353.69572103
 H      8   6   2     1.852618108513   105.03598478   176.27270634
 H      9   5   2     2.073819030067   109.81300857   335.01756001
 H      9   5   2     2.072958008398   109.15803676   219.26426810
 H     10   9   5     2.068283031017   112.07227054    59.70025548
 H     10   9   5     2.067193017877   110.99782088   182.17273376

---------------------
BASIS SET INFORMATION
---------------------
There are 4 groups of distinct atoms

 Group   1 Type C   : 11s6p2d1f contracted to 5s3p2d1f pattern {62111/411/11/1}
 Group   2 Type O   : 11s6p2d1f contracted to 5s3p2d1f pattern {62111/411/11/1}
 Group   3 Type N   : 11s6p2d1f contracted to 5s3p2d1f pattern {62111/411/11/1}
 Group   4 Type H   : 5s1p contracted to 3s1p pattern {311/1}

Atom   0C    basis set group =>   1
Atom   1C    basis set group =>   1
Atom   2C    basis set group =>   1
Atom   3C    basis set group =>   1
Atom   4C    basis set group =>   1
Atom   5C    basis set group =>   1
Atom   6O    basis set group =>   2
Atom   7O    basis set group =>   2
Atom   8C    basis set group =>   1
Atom   9C    basis set group =>   1
Atom  10N    basis set group =>   3
Atom  11H    basis set group =>   4
Atom  12H    basis set group =>   4
Atom  13H    basis set group =>   4
Atom  14H    basis set group =>   4
Atom  15H    basis set group =>   4
Atom  16H    basis set group =>   4
Atom  17H    basis set group =>   4
Atom  18H    basis set group =>   4
Atom  19H    basis set group =>   4
Atom  20H    basis set group =>   4
Atom  21H    basis set group =>   4
Atom  22H    basis set group =>   4
---------------------------------
AUXILIARY/J BASIS SET INFORMATION
---------------------------------
There are 4 groups of distinct atoms

 Group   1 Type C   : 12s5p4d2f1g contracted to 6s4p3d1f1g pattern {711111/2111/211/2/1}
 Group   2 Type O   : 12s5p4d2f1g contracted to 6s4p3d1f1g pattern {711111/2111/211/2/1}
 Group   3 Type N   : 12s5p4d2f1g contracted to 6s4p3d1f1g pattern {711111/2111/211/2/1}
 Group   4 Type H   : 5s2p1d contracted to 3s1p1d pattern {311/2/1}

Atom   0C    basis set group =>   1
Atom   1C    basis set group =>   1
Atom   2C    basis set group =>   1
Atom   3C    basis set group =>   1
Atom   4C    basis set group =>   1
Atom   5C    basis set group =>   1
Atom   6O    basis set group =>   2
Atom   7O    basis set group =>   2
Atom   8C    basis set group =>   1
Atom   9C    basis set group =>   1
Atom  10N    basis set group =>   3
Atom  11H    basis set group =>   4
Atom  12H    basis set group =>   4
Atom  13H    basis set group =>   4
Atom  14H    basis set group =>   4
Atom  15H    basis set group =>   4
Atom  16H    basis set group =>   4
Atom  17H    basis set group =>   4
Atom  18H    basis set group =>   4
Atom  19H    basis set group =>   4
Atom  20H    basis set group =>   4
Atom  21H    basis set group =>   4
Atom  22H    basis set group =>   4


           ************************************************************
           *        Program running with 8 parallel MPI-processes     *
           *              working on a common directory               *
           ************************************************************
------------------------------------------------------------------------------
                           ORCA GTO INTEGRAL CALCULATION
                           -- RI-GTO INTEGRALS CHOSEN --
------------------------------------------------------------------------------
------------------------------------------------------------------------------
                   ___                                                        
                  /   \      - P O W E R E D   B Y -                         
                 /     \                                                     
                 |  |  |   _    _      __       _____    __    __             
                 |  |  |  | |  | |    /  \     |  _  \  |  |  /  |          
                  \  \/   | |  | |   /    \    | | | |  |  | /  /          
                 / \  \   | |__| |  /  /\  \   | |_| |  |  |/  /          
                |  |  |   |  __  | /  /__\  \  |    /   |      \           
                |  |  |   | |  | | |   __   |  |    \   |  |\   \          
                \     /   | |  | | |  |  |  |  | |\  \  |  | \   \       
                 \___/    |_|  |_| |__|  |__|  |_| \__\ |__|  \__/        
                                                                              
                      - O R C A' S   B I G   F R I E N D -                    
                                      &                                       
                       - I N T E G R A L  F E E D E R -                       
                                                                              
 v1 FN, 2020, v2 2021                                                         
------------------------------------------------------------------------------


Reading SHARK input file M0001.SHARKINP.tmp ... ok
----------------------
SHARK INTEGRAL PACKAGE
----------------------

Number of atoms                             ...     23
Number of basis functions                   ...    413
Number of shells                            ...    169
Maximum angular momentum                    ...      3
Integral batch strategy                     ... SHARK/LIBINT Hybrid
RI-J (if used) integral strategy            ... SPLIT-RIJ (Revised 2003 algorithm where possible)
Printlevel                                  ...      1
Contraction scheme used                     ... SEGMENTED contraction
Coulomb Range Separation                    ... NOT USED
Exchange Range Separation                   ... NOT USED
Finite Nucleus Model                        ... NOT USED
Auxiliary Coulomb fitting basis             ... AVAILABLE
   # of basis functions in Aux-J            ...    671
   # of shells in Aux-J                     ...    225
   Maximum angular momentum in Aux-J        ...      4
Auxiliary J/K fitting basis                 ... NOT available
Auxiliary Correlation fitting basis         ... NOT available
Auxiliary 'external' fitting basis          ... NOT available
Integral threshold                          ...     2.500000e-11
Primitive cut-off                           ...     2.500000e-12
Primitive pair pre-selection threshold      ...     2.500000e-12

Calculating pre-screening integrals         ... done (  0.1 sec) Dimension = 169
Organizing shell pair data                  ... done (  0.1 sec)
Shell pair information
Total number of shell pairs                 ...     14365
Shell pairs after pre-screening             ...     12240
Total number of primitive shell pairs       ...     43056
Primitive shell pairs kept                  ...     26555
          la=0 lb=0:   3451 shell pairs
          la=1 lb=0:   3525 shell pairs
          la=1 lb=1:    927 shell pairs
          la=2 lb=0:   1706 shell pairs
          la=2 lb=1:    879 shell pairs
          la=2 lb=2:    222 shell pairs
          la=3 lb=0:    826 shell pairs
          la=3 lb=1:    435 shell pairs
          la=3 lb=2:    211 shell pairs
          la=3 lb=3:     58 shell pairs

Calculating one electron integrals          ... done (  0.0 sec)
Calculating RI/J V-Matrix + Cholesky decomp.... done (  0.0 sec)
Calculating Nuclear repulsion               ... done (  0.0 sec) ENN=    619.189268196536 Eh

SHARK setup successfully completed in   0.2 seconds

Maximum memory used throughout the entire GTOINT-calculation: 20.7 MB


           ************************************************************
           *        Program running with 8 parallel MPI-processes     *
           *              working on a common directory               *
           ************************************************************
-------------------------------------------------------------------------------
                                 ORCA SCF
-------------------------------------------------------------------------------

------------
SCF SETTINGS
------------
Hamiltonian:
 Density Functional     Method          .... DFT(GTOs)
 Exchange Functional    Exchange        .... PBE
   PBE kappa parameter   XKappa         ....  0.804000
   PBE mue parameter    XMuePBE         ....  0.219520
 Correlation Functional Correlation     .... PBE
   PBE beta parameter  CBetaPBE         ....  0.066725
 LDA part of GGA corr.  LDAOpt          .... PW91-LDA
 Gradients option       PostSCFGGA      .... off
   Density functional embedding theory  .... OFF
   NL short-range parameter             ....  6.400000
 RI-approximation to the Coulomb term is turned on
   Number of AuxJ basis functions       .... 671


General Settings:
 Integral files         IntName         .... M0001
 Hartree-Fock type      HFTyp           .... RHF
 Total Charge           Charge          ....    1
 Multiplicity           Mult            ....    1
 Number of Electrons    NEL             ....   82
 Basis Dimension        Dim             ....  413
 Nuclear Repulsion      ENuc            ....    619.1892681965 Eh

Convergence Acceleration:
 DIIS                   CNVDIIS         .... on
   Start iteration      DIISMaxIt       ....    12
   Startup error        DIISStart       ....  0.200000
   # of expansion vecs  DIISMaxEq       ....     5
   Bias factor          DIISBfac        ....   1.050
   Max. coefficient     DIISMaxC        ....  10.000
 Trust-Rad. Augm. Hess. CNVTRAH         .... auto
   Auto Start mean grad. ratio tolernc. ....  1.125000
   Auto Start start iteration           ....    20
   Auto Start num. interpolation iter.  ....    10
   Max. Number of Micro iterations      ....    16
   Max. Number of Macro iterations      .... Maxiter - #DIIS iter
   Number of Davidson start vectors     ....     2
   Converg. threshold I  (grad. norm)   ....   1.000e-05
   Converg. threshold II (energy diff.) ....   1.000e-08
   Grad. Scal. Fac. for Micro threshold ....   0.100
   Minimum threshold for Micro iter.    ....   0.010
   NR start threshold (gradient norm)   ....   0.001
   Initial trust radius                 ....   0.400
   Minimum AH scaling param. (alpha)    ....   1.000
   Maximum AH scaling param. (alpha)    .... 1000.000
   Orbital update algorithm             .... Taylor
   White noise on init. David. guess    .... on
   Maximum white noise                  ....   0.010
   Quad. conv. algorithm                .... NR
 SOSCF                  CNVSOSCF        .... on
   Start iteration      SOSCFMaxIt      ....   150
   Startup grad/error   SOSCFStart      ....  0.003300
 Level Shifting         CNVShift        .... on
   Level shift para.    LevelShift      ....    0.2500
   Turn off err/grad.   ShiftErr        ....    0.0010
 Zerner damping         CNVZerner       .... off
 Static damping         CNVDamp         .... on
   Fraction old density DampFac         ....    0.7000
   Max. Damping (<1)    DampMax         ....    0.9800
   Min. Damping (>=0)   DampMin         ....    0.0000
   Turn off err/grad.   DampErr         ....    0.1000
 Fernandez-Rico         CNVRico         .... off

SCF Procedure:
 Maximum # iterations   MaxIter         ....   125
 SCF integral mode      SCFMode         .... Direct
   Integral package                     .... SHARK and LIBINT hybrid scheme
 Reset frequency        DirectResetFreq ....    20
 Integral Threshold     Thresh          ....  2.500e-11 Eh
 Primitive CutOff       TCut            ....  2.500e-12 Eh

Convergence Tolerance:
 Convergence Check Mode ConvCheckMode   .... Total+1el-Energy
 Convergence forced     ConvForced      .... 0
 Energy Change          TolE            ....  1.000e-08 Eh
 1-El. energy change                    ....  1.000e-05 Eh
 Orbital Gradient       TolG            ....  1.000e-05
 Orbital Rotation angle TolX            ....  1.000e-05
 DIIS Error             TolErr          ....  5.000e-07


Diagonalization of the overlap matrix:
Smallest eigenvalue                        ... 8.890e-06
Time for diagonalization                   ...    0.032 sec
Threshold for overlap eigenvalues          ... 1.000e-08
Number of eigenvalues below threshold      ... 0
Time for construction of square roots      ...    0.019 sec
Total time needed                          ...    0.052 sec

Time for model grid setup =    0.100 sec

------------------------------
INITIAL GUESS: MODEL POTENTIAL
------------------------------
Loading Hartree-Fock densities                     ... done
Calculating cut-offs                               ... done
Initializing the effective Hamiltonian             ... done
Setting up the integral package (SHARK)            ... done
Starting the Coulomb interaction                   ... done (   0.1 sec)
Reading the grid                                   ... done
Mapping shells                                     ... done
Starting the XC term evaluation                    ... done (   0.1 sec)
  promolecular density results
     # of electrons  =     83.001970761
     EX              =    -67.387334400
     EC              =     -2.776258751
     EX+EC           =    -70.163593150
Transforming the Hamiltonian                       ... done (   0.0 sec)
Diagonalizing the Hamiltonian                      ... done (   0.0 sec)
Back transforming the eigenvectors                 ... done (   0.0 sec)
Now organizing SCF variables                       ... done
                      ------------------
                      INITIAL GUESS DONE (   0.4 sec)
                      ------------------
-------------------
DFT GRID GENERATION
-------------------

General Integration Accuracy     IntAcc      ... 4.388
Radial Grid Type                 RadialGrid  ... OptM3 with GC (2021)
Angular Grid (max. ang.)         AngularGrid ... 4 (Lebedev-302)
Angular grid pruning method      GridPruning ... 4 (adaptive)
Weight generation scheme         WeightScheme... Becke
Basis function cutoff            BFCut       ... 1.0000e-11
Integration weight cutoff        WCut        ... 1.0000e-14
Angular grids for H and He will be reduced by one unit
Partially contracted basis set               ... off
Rotationally invariant grid construction     ... off

Total number of grid points                  ...   104400
Total number of batches                      ...     1642
Average number of points per batch           ...       63
Average number of grid points per atom       ...     4539
Time for grid setup =    0.516 sec

--------------
SCF ITERATIONS
--------------
ITER       Energy         Delta-E        Max-DP      RMS-DP      [F,P]     Damp
               ***  Starting incremental Fock matrix formation  ***
  0   -516.3758291000   0.000000000000 0.20242423  0.00161178  0.2098597 0.7000
  1   -516.4913140524  -0.115484952395 0.18964228  0.00148378  0.0821822 0.7000
                               ***Turning on DIIS***
  2   -516.5327051069  -0.041391054510 0.21613329  0.00223814  0.0229878 0.0000
  3   -516.5958059078  -0.063100800892 0.17745561  0.00126208  0.0460792 0.0000
  4   -516.6129383550  -0.017132447269 0.05318019  0.00047291  0.0112293 0.0000
  5   -516.6140326312  -0.001094276197 0.02499731  0.00020045  0.0056114 0.0000
                      *** Initiating the SOSCF procedure ***
                           *** Shutting down DIIS ***
                      *** Re-Reading the Fockian *** 
                      *** Removing any level shift *** 
ITER      Energy       Delta-E        Grad      Rot      Max-DP    RMS-DP
  6   -516.61415801  -0.0001253792  0.000342  0.000342  0.005002  0.000057
               *** Restarting incremental Fock matrix formation ***
  7   -516.61416617  -0.0000081588  0.000345  0.001978  0.004603  0.000048
  8   -516.61415637   0.0000098000  0.000994  0.001880  0.002152  0.000019
  9   -516.61416911  -0.0000127452  0.000051  0.000240  0.000486  0.000006
 10   -516.61416892   0.0000001917  0.000093  0.000092  0.000386  0.000003
 11   -516.61416922  -0.0000003007  0.000012  0.000055  0.000161  0.000002
 12   -516.61416920   0.0000000194  0.000025  0.000046  0.000098  0.000001
 13   -516.61416923  -0.0000000250  0.000004  0.000021  0.000316  0.000003
 14   -516.61416924  -0.0000000073  0.000007  0.000017  0.000163  0.000001
                  ***Gradient check signals convergence***
              ***Rediagonalizing the Fockian in SOSCF/NRSCF***

               *****************************************************
               *                     SUCCESS                       *
               *           SCF CONVERGED AFTER  15 CYCLES          *
               *****************************************************


----------------
TOTAL SCF ENERGY
----------------

Total Energy       :         -516.61416924 Eh          -14057.78623 eV

Components:
Nuclear Repulsion  :          619.18926820 Eh           16848.99657 eV
Electronic Energy  :        -1135.80343743 Eh          -30906.78280 eV
One Electron Energy:        -1917.54111202 Eh          -52178.94638 eV
Two Electron Energy:          781.73767458 Eh           21272.16358 eV

Virial components:
Potential Energy   :        -1031.06906471 Eh          -28056.81563 eV
Kinetic Energy     :          514.45489547 Eh           13999.02940 eV
Virial Ratio       :            2.00419721


DFT components:
N(Alpha)           :       40.999904659733 electrons
N(Beta)            :       40.999904659733 electrons
N(Total)           :       81.999809319466 electrons
E(X)               :      -68.438013374577 Eh       
E(C)               :       -2.747556498645 Eh       
E(XC)              :      -71.185569873222 Eh       
DFET-embed. en.    :        0.000000000000 Eh       

---------------
SCF CONVERGENCE
---------------

  Last Energy change         ...   -1.6457e-09  Tolerance :   1.0000e-08
  Last MAX-Density change    ...    6.2517e-05  Tolerance :   1.0000e-07
  Last RMS-Density change    ...    1.0572e-06  Tolerance :   5.0000e-09
  Last Orbital Gradient      ...    2.1358e-06  Tolerance :   1.0000e-05
  Last Orbital Rotation      ...    6.4837e-06  Tolerance :   1.0000e-05

             **** THE GBW FILE WAS UPDATED (M0001.gbw) ****
             **** DENSITY M0001.scfp WAS UPDATED ****
             **** ENERGY FILE WAS UPDATED (M0001.en.tmp) ****
             **** THE GBW FILE WAS UPDATED (M0001.gbw) ****
             **** DENSITY M0001.scfp WAS UPDATED ****
----------------
ORBITAL ENERGIES
----------------

  NO   OCC          E(Eh)            E(eV) 
   0   2.0000     -18.908421      -514.5243 
   1   2.0000     -18.894743      -514.1521 
   2   2.0000     -14.292373      -388.9152 
   3   2.0000     -10.114899      -275.2404 
   4   2.0000     -10.066374      -273.9200 
   5   2.0000     -10.064810      -273.8774 
   6   2.0000     -10.050087      -273.4768 
   7   2.0000     -10.028890      -272.9000 
   8   2.0000     -10.014536      -272.5094 
   9   2.0000     -10.012739      -272.4605 
  10   2.0000     -10.011577      -272.4289 
  11   2.0000      -1.112450       -30.2713 
  12   2.0000      -1.109493       -30.1908 
  13   2.0000      -1.080557       -29.4034 
  14   2.0000      -0.915054       -24.8999 
  15   2.0000      -0.875109       -23.8129 
  16   2.0000      -0.811412       -22.0796 
  17   2.0000      -0.799297       -21.7500 
  18   2.0000      -0.751308       -20.4441 
  19   2.0000      -0.721964       -19.6456 
  20   2.0000      -0.715406       -19.4672 
  21   2.0000      -0.694603       -18.9011 
  22   2.0000      -0.674593       -18.3566 
  23   2.0000      -0.629624       -17.1329 
  24   2.0000      -0.622495       -16.9389 
  25   2.0000      -0.602954       -16.4072 
  26   2.0000      -0.565009       -15.3747 
  27   2.0000      -0.556496       -15.1430 
  28   2.0000      -0.536369       -14.5953 
  29   2.0000      -0.524023       -14.2594 
  30   2.0000      -0.518950       -14.1214 
  31   2.0000      -0.507117       -13.7994 
  32   2.0000      -0.493702       -13.4343 
  33   2.0000      -0.475033       -12.9263 
  34   2.0000      -0.462013       -12.5720 
  35   2.0000      -0.443354       -12.0643 
  36   2.0000      -0.438643       -11.9361 
  37   2.0000      -0.428112       -11.6495 
  38   2.0000      -0.415627       -11.3098 
  39   2.0000      -0.345464        -9.4006 
  40   2.0000      -0.310917        -8.4605 
  41   0.0000      -0.196388        -5.3440 
  42   0.0000      -0.168416        -4.5828 
  43   0.0000      -0.154509        -4.2044 
  44   0.0000      -0.142292        -3.8720 
  45   0.0000      -0.133189        -3.6243 
  46   0.0000      -0.112607        -3.0642 
  47   0.0000      -0.108518        -2.9529 
  48   0.0000      -0.087052        -2.3688 
  49   0.0000      -0.080135        -2.1806 
  50   0.0000      -0.077665        -2.1134 
  51   0.0000      -0.067051        -1.8246 
  52   0.0000      -0.049679        -1.3518 
  53   0.0000      -0.047776        -1.3001 
  54   0.0000      -0.036790        -1.0011 
  55   0.0000      -0.022567        -0.6141 
  56   0.0000      -0.012004        -0.3266 
  57   0.0000      -0.005920        -0.1611 
  58   0.0000       0.004499         0.1224 
  59   0.0000       0.010752         0.2926 
  60   0.0000       0.025664         0.6983 
  61   0.0000       0.039871         1.0849 
  62   0.0000       0.041346         1.1251 
  63   0.0000       0.054010         1.4697 
  64   0.0000       0.059544         1.6203 
  65   0.0000       0.064592         1.7576 
  66   0.0000       0.079765         2.1705 
  67   0.0000       0.087303         2.3756 
  68   0.0000       0.096674         2.6306 
  69   0.0000       0.107635         2.9289 
  70   0.0000       0.112916         3.0726 
  71   0.0000       0.126623         3.4456 
  72   0.0000       0.137656         3.7458 
  73   0.0000       0.140342         3.8189 
  74   0.0000       0.149154         4.0587 
  75   0.0000       0.158498         4.3130 
  76   0.0000       0.167439         4.5563 
  77   0.0000       0.183039         4.9808 
  78   0.0000       0.186620         5.0782 
  79   0.0000       0.194987         5.3059 
  80   0.0000       0.200056         5.4438 
  81   0.0000       0.216001         5.8777 
  82   0.0000       0.217263         5.9120 
  83   0.0000       0.218564         5.9474 
  84   0.0000       0.225869         6.1462 
  85   0.0000       0.232030         6.3138 
  86   0.0000       0.236814         6.4440 
  87   0.0000       0.242447         6.5973 
  88   0.0000       0.246076         6.6961 
  89   0.0000       0.258588         7.0365 
  90   0.0000       0.261312         7.1107 
  91   0.0000       0.264969         7.2102 
  92   0.0000       0.275548         7.4981 
  93   0.0000       0.285141         7.7591 
  94   0.0000       0.290805         7.9132 
  95   0.0000       0.294007         8.0003 
  96   0.0000       0.301628         8.2077 
  97   0.0000       0.307366         8.3639 
  98   0.0000       0.321992         8.7618 
  99   0.0000       0.332261         9.0413 
 100   0.0000       0.346477         9.4281 
 101   0.0000       0.362028         9.8513 
 102   0.0000       0.369758        10.0616 
 103   0.0000       0.381947        10.3933 
 104   0.0000       0.386830        10.5262 
 105   0.0000       0.405781        11.0419 
 106   0.0000       0.421587        11.4720 
 107   0.0000       0.428831        11.6691 
 108   0.0000       0.440180        11.9779 
 109   0.0000       0.447233        12.1698 
 110   0.0000       0.456715        12.4279 
 111   0.0000       0.464851        12.6493 
 112   0.0000       0.482325        13.1247 
 113   0.0000       0.486477        13.2377 
 114   0.0000       0.496977        13.5234 
 115   0.0000       0.512659        13.9502 
 116   0.0000       0.533540        14.5184 
 117   0.0000       0.542760        14.7693 
 118   0.0000       0.560670        15.2566 
 119   0.0000       0.568858        15.4794 
 120   0.0000       0.591033        16.0828 
 121   0.0000       0.597990        16.2721 
 122   0.0000       0.609357        16.5814 
 123   0.0000       0.613397        16.6914 
 124   0.0000       0.623531        16.9671 
 125   0.0000       0.654358        17.8060 
 126   0.0000       0.663112        18.0442 
 127   0.0000       0.668760        18.1979 
 128   0.0000       0.673505        18.3270 
 129   0.0000       0.687481        18.7073 
 130   0.0000       0.700191        19.0532 
 131   0.0000       0.713094        19.4043 
 132   0.0000       0.725884        19.7523 
 133   0.0000       0.753938        20.5157 
 134   0.0000       0.759417        20.6648 
 135   0.0000       0.787747        21.4357 
 136   0.0000       0.795391        21.6437 
 137   0.0000       0.831151        22.6168 
 138   0.0000       0.854930        23.2638 
 139   0.0000       0.870108        23.6769 
 140   0.0000       0.884104        24.0577 
 141   0.0000       0.886548        24.1242 
 142   0.0000       0.897781        24.4299 
 143   0.0000       0.913917        24.8690 
 144   0.0000       0.925048        25.1718 
 145   0.0000       0.946861        25.7654 
 146   0.0000       0.951136        25.8817 
 147   0.0000       0.968967        26.3669 
 148   0.0000       0.997373        27.1399 
 149   0.0000       1.009405        27.4673 
 150   0.0000       1.018230        27.7075 
 151   0.0000       1.026697        27.9378 
 152   0.0000       1.036433        28.2028 
 153   0.0000       1.049077        28.5468 
 154   0.0000       1.079587        29.3770 
 155   0.0000       1.087808        29.6008 
 156   0.0000       1.090924        29.6855 
 157   0.0000       1.121957        30.5300 
 158   0.0000       1.126951        30.6659 
 159   0.0000       1.146061        31.1859 
 160   0.0000       1.152614        31.3642 
 161   0.0000       1.173760        31.9396 
 162   0.0000       1.182576        32.1795 
 163   0.0000       1.201442        32.6929 
 164   0.0000       1.208970        32.8978 
 165   0.0000       1.243826        33.8462 
 166   0.0000       1.256641        34.1949 
 167   0.0000       1.272539        34.6275 
 168   0.0000       1.292634        35.1744 
 169   0.0000       1.304681        35.5022 
 170   0.0000       1.321065        35.9480 
 171   0.0000       1.325637        36.0724 
 172   0.0000       1.347710        36.6731 
 173   0.0000       1.363453        37.1014 
 174   0.0000       1.371803        37.3287 
 175   0.0000       1.384910        37.6853 
 176   0.0000       1.402008        38.1506 
 177   0.0000       1.415411        38.5153 
 178   0.0000       1.431402        38.9504 
 179   0.0000       1.453560        39.5534 
 180   0.0000       1.468212        39.9521 
 181   0.0000       1.469515        39.9875 
 182   0.0000       1.486130        40.4397 
 183   0.0000       1.490908        40.5697 
 184   0.0000       1.510361        41.0990 
 185   0.0000       1.513078        41.1729 
 186   0.0000       1.526824        41.5470 
 187   0.0000       1.532585        41.7038 
 188   0.0000       1.550477        42.1906 
 189   0.0000       1.556386        42.3514 
 190   0.0000       1.570578        42.7376 
 191   0.0000       1.592266        43.3278 
 192   0.0000       1.613542        43.9067 
 193   0.0000       1.634996        44.4905 
 194   0.0000       1.655202        45.0403 
 195   0.0000       1.663083        45.2548 
 196   0.0000       1.667029        45.3622 
 197   0.0000       1.672677        45.5159 
 198   0.0000       1.698759        46.2256 
 199   0.0000       1.701665        46.3046 
 200   0.0000       1.711449        46.5709 
 201   0.0000       1.746136        47.5148 
 202   0.0000       1.751799        47.6689 
 203   0.0000       1.768170        48.1144 
 204   0.0000       1.780139        48.4400 
 205   0.0000       1.802475        49.0478 
 206   0.0000       1.814073        49.3634 
 207   0.0000       1.838879        50.0384 
 208   0.0000       1.854231        50.4562 
 209   0.0000       1.881764        51.2054 
 210   0.0000       1.904393        51.8212 
 211   0.0000       1.918788        52.2129 
 212   0.0000       1.941185        52.8223 
 213   0.0000       1.949770        53.0559 
 214   0.0000       1.961002        53.3616 
 215   0.0000       1.963073        53.4179 
 216   0.0000       1.976103        53.7725 
 217   0.0000       1.989936        54.1489 
 218   0.0000       2.016421        54.8696 
 219   0.0000       2.028900        55.2092 
 220   0.0000       2.038433        55.4686 
 221   0.0000       2.080461        56.6122 
 222   0.0000       2.096140        57.0389 
 223   0.0000       2.101378        57.1814 
 224   0.0000       2.121934        57.7408 
 225   0.0000       2.135856        58.1196 
 226   0.0000       2.147380        58.4332 
 227   0.0000       2.165338        58.9218 
 228   0.0000       2.196756        59.7768 
 229   0.0000       2.198403        59.8216 
 230   0.0000       2.225398        60.5562 
 231   0.0000       2.236380        60.8550 
 232   0.0000       2.250426        61.2372 
 233   0.0000       2.261745        61.5452 
 234   0.0000       2.284006        62.1510 
 235   0.0000       2.305150        62.7263 
 236   0.0000       2.308707        62.8231 
 237   0.0000       2.333472        63.4970 
 238   0.0000       2.339457        63.6599 
 239   0.0000       2.345365        63.8206 
 240   0.0000       2.355307        64.0912 
 241   0.0000       2.369637        64.4811 
 242   0.0000       2.395521        65.1854 
 243   0.0000       2.411225        65.6128 
 244   0.0000       2.428037        66.0703 
 245   0.0000       2.437251        66.3210 
 246   0.0000       2.455219        66.8099 
 247   0.0000       2.474476        67.3339 
 248   0.0000       2.479177        67.4618 
 249   0.0000       2.482706        67.5579 
 250   0.0000       2.510840        68.3234 
 251   0.0000       2.527792        68.7847 
 252   0.0000       2.537363        69.0452 
 253   0.0000       2.550958        69.4151 
 254   0.0000       2.557578        69.5952 
 255   0.0000       2.570718        69.9528 
 256   0.0000       2.579328        70.1871 
 257   0.0000       2.594613        70.6030 
 258   0.0000       2.623490        71.3888 
 259   0.0000       2.639290        71.8187 
 260   0.0000       2.649418        72.0943 
 261   0.0000       2.659772        72.3761 
 262   0.0000       2.683573        73.0237 
 263   0.0000       2.691825        73.2483 
 264   0.0000       2.693968        73.3066 
 265   0.0000       2.716912        73.9309 
 266   0.0000       2.720367        74.0249 
 267   0.0000       2.738288        74.5126 
 268   0.0000       2.751612        74.8752 
 269   0.0000       2.784065        75.7583 
 270   0.0000       2.792556        75.9893 
 271   0.0000       2.813747        76.5660 
 272   0.0000       2.818375        76.6919 
 273   0.0000       2.826383        76.9098 
 274   0.0000       2.842955        77.3608 
 275   0.0000       2.854613        77.6780 
 276   0.0000       2.857300        77.7511 
 277   0.0000       2.892974        78.7218 
 278   0.0000       2.907000        79.1035 
 279   0.0000       2.919807        79.4520 
 280   0.0000       2.921281        79.4921 
 281   0.0000       2.957974        80.4906 
 282   0.0000       2.959931        80.5438 
 283   0.0000       2.974902        80.9512 
 284   0.0000       2.986494        81.2666 
 285   0.0000       3.001776        81.6825 
 286   0.0000       3.006503        81.8111 
 287   0.0000       3.011526        81.9478 
 288   0.0000       3.032293        82.5129 
 289   0.0000       3.040600        82.7389 
 290   0.0000       3.050678        83.0132 
 291   0.0000       3.061216        83.2999 
 292   0.0000       3.082396        83.8763 
 293   0.0000       3.097846        84.2967 
 294   0.0000       3.108663        84.5910 
 295   0.0000       3.131405        85.2099 
 296   0.0000       3.134405        85.2915 
 297   0.0000       3.152762        85.7910 
 298   0.0000       3.170587        86.2761 
 299   0.0000       3.189402        86.7880 
 300   0.0000       3.206332        87.2487 
 301   0.0000       3.208501        87.3078 
 302   0.0000       3.235538        88.0435 
 303   0.0000       3.243045        88.2477 
 304   0.0000       3.246830        88.3507 
 305   0.0000       3.272509        89.0495 
 306   0.0000       3.284633        89.3794 
 307   0.0000       3.291553        89.5677 
 308   0.0000       3.305134        89.9373 
 309   0.0000       3.316903        90.2575 
 310   0.0000       3.328600        90.5758 
 311   0.0000       3.358729        91.3957 
 312   0.0000       3.398756        92.4848 
 313   0.0000       3.434682        93.4624 
 314   0.0000       3.454641        94.0056 
 315   0.0000       3.464155        94.2645 
 316   0.0000       3.490585        94.9836 
 317   0.0000       3.498621        95.2023 
 318   0.0000       3.516463        95.6878 
 319   0.0000       3.546046        96.4928 
 320   0.0000       3.583450        97.5106 
 321   0.0000       3.594866        97.8213 
 322   0.0000       3.606218        98.1302 
 323   0.0000       3.642469        99.1166 
 324   0.0000       3.680824       100.1603 
 325   0.0000       3.688108       100.3585 
 326   0.0000       3.716898       101.1419 
 327   0.0000       3.732453       101.5652 
 328   0.0000       3.757281       102.2408 
 329   0.0000       3.784003       102.9680 
 330   0.0000       3.809274       103.6556 
 331   0.0000       3.836223       104.3889 
 332   0.0000       3.847840       104.7051 
 333   0.0000       3.873761       105.4104 
 334   0.0000       3.932786       107.0166 
 335   0.0000       3.949895       107.4821 
 336   0.0000       3.954907       107.6185 
 337   0.0000       3.974558       108.1532 
 338   0.0000       3.984836       108.4329 
 339   0.0000       4.010426       109.1292 
 340   0.0000       4.018850       109.3585 
 341   0.0000       4.030158       109.6662 
 342   0.0000       4.074909       110.8839 
 343   0.0000       4.086710       111.2050 
 344   0.0000       4.112051       111.8946 
 345   0.0000       4.129084       112.3581 
 346   0.0000       4.171686       113.5173 
 347   0.0000       4.204611       114.4133 
 348   0.0000       4.234859       115.2364 
 349   0.0000       4.254159       115.7615 
 350   0.0000       4.339197       118.0756 
 351   0.0000       4.361166       118.6734 
 352   0.0000       4.381702       119.2322 
 353   0.0000       4.429969       120.5456 
 354   0.0000       4.434138       120.6590 
 355   0.0000       4.464555       121.4867 
 356   0.0000       4.502678       122.5241 
 357   0.0000       4.537727       123.4778 
 358   0.0000       4.566470       124.2600 
 359   0.0000       4.584694       124.7559 
 360   0.0000       4.613975       125.5527 
 361   0.0000       4.646703       126.4432 
 362   0.0000       4.660043       126.8062 
 363   0.0000       4.676330       127.2494 
 364   0.0000       4.696433       127.7964 
 365   0.0000       4.735316       128.8545 
 366   0.0000       4.771965       129.8518 
 367   0.0000       4.818752       131.1249 
 368   0.0000       4.855684       132.1299 
 369   0.0000       4.887605       132.9985 
 370   0.0000       4.903764       133.4382 
 371   0.0000       4.997699       135.9943 
 372   0.0000       5.049275       137.3978 
 373   0.0000       5.059216       137.6683 
 374   0.0000       5.084679       138.3612 
 375   0.0000       5.128697       139.5589 
 376   0.0000       5.148858       140.1076 
 377   0.0000       5.186533       141.1327 
 378   0.0000       5.210114       141.7744 
 379   0.0000       5.258211       143.0832 
 380   0.0000       5.279749       143.6693 
 381   0.0000       5.347784       145.5206 
 382   0.0000       5.399002       146.9143 
 383   0.0000       5.442192       148.0896 
 384   0.0000       5.460936       148.5996 
 385   0.0000       5.638186       153.4228 
 386   0.0000       5.657681       153.9533 
 387   0.0000       5.771652       157.0546 
 388   0.0000       5.949232       161.8868 
 389   0.0000       6.041747       164.4043 
 390   0.0000       6.123484       166.6285 
 391   0.0000       6.178567       168.1274 
 392   0.0000       6.195328       168.5834 
 393   0.0000       6.318396       171.9323 
 394   0.0000       6.414470       174.5466 
 395   0.0000       6.515381       177.2925 
 396   0.0000       6.546293       178.1337 
 397   0.0000       6.584135       179.1634 
 398   0.0000       6.739159       183.3818 
 399   0.0000       6.758712       183.9139 
 400   0.0000       6.982092       189.9924 
 401   0.0000       7.109581       193.4615 
 402   0.0000      21.793317       593.0263 
 403   0.0000      21.941879       597.0689 
 404   0.0000      22.131136       602.2188 
 405   0.0000      22.307638       607.0217 
 406   0.0000      22.364477       608.5684 
 407   0.0000      22.500497       612.2696 
 408   0.0000      22.592270       614.7669 
 409   0.0000      23.028668       626.6419 
 410   0.0000      31.352568       853.1467 
 411   0.0000      43.330519      1179.0834 
 412   0.0000      43.557885      1185.2703 

                    ********************************
                    * MULLIKEN POPULATION ANALYSIS *
                    ********************************

-----------------------
MULLIKEN ATOMIC CHARGES
-----------------------
   0 C :   -0.170567
   1 C :   -0.386828
   2 C :    0.216617
   3 C :   -0.244444
   4 C :    0.205860
   5 C :    0.140419
   6 O :   -0.375679
   7 O :   -0.324495
   8 C :   -0.292495
   9 C :   -0.200031
  10 N :   -0.259427
  11 H :    0.319216
  12 H :    0.315213
  13 H :    0.305606
  14 H :    0.131237
  15 H :    0.117886
  16 H :    0.123617
  17 H :    0.332811
  18 H :    0.333508
  19 H :    0.171830
  20 H :    0.172285
  21 H :    0.185355
  22 H :    0.182504
Sum of atomic charges:    1.0000000

--------------------------------
MULLIKEN REDUCED ORBITAL CHARGES
--------------------------------
  0 C s       :     3.198959  s :     3.198959
      pz      :     1.003750  p :     2.888003
      px      :     0.949914
      py      :     0.934339
      dz2     :     0.007300  d :     0.076720
      dxz     :     0.017335
      dyz     :     0.011907
      dx2y2   :     0.015445
      dxy     :     0.024734
      f0      :     0.001118  f :     0.006886
      f+1     :     0.001024
      f-1     :     0.000459
      f+2     :     0.000790
      f-2     :     0.000837
      f+3     :     0.000781
      f-3     :     0.001877
  1 C s       :     3.352014  s :     3.352014
      pz      :     1.080596  p :     2.947869
      px      :     0.991649
      py      :     0.875624
      dz2     :     0.006599  d :     0.079973
      dxz     :     0.019751
      dyz     :     0.010904
      dx2y2   :     0.020461
      dxy     :     0.022257
      f0      :     0.001053  f :     0.006972
      f+1     :     0.001095
      f-1     :     0.000439
      f+2     :     0.000769
      f-2     :     0.000882
      f+3     :     0.000751
      f-3     :     0.001983
  2 C s       :     3.089185  s :     3.089185
      pz      :     0.941450  p :     2.510941
      px      :     0.716043
      py      :     0.853447
      dz2     :     0.018384  d :     0.168552
      dxz     :     0.037950
      dyz     :     0.022967
      dx2y2   :     0.031482
      dxy     :     0.057769
      f0      :     0.001619  f :     0.014705
      f+1     :     0.002068
      f-1     :     0.000922
      f+2     :     0.002241
      f-2     :     0.001507
      f+3     :     0.001817
      f-3     :     0.004531
  3 C s       :     3.240462  s :     3.240462
      pz      :     0.999660  p :     2.912866
      px      :     0.995216
      py      :     0.917991
      dz2     :     0.010498  d :     0.084183
      dxz     :     0.016984
      dyz     :     0.008931
      dx2y2   :     0.015840
      dxy     :     0.031931
      f0      :     0.000788  f :     0.006933
      f+1     :     0.001082
      f-1     :     0.000925
      f+2     :     0.000914
      f-2     :     0.000571
      f+3     :     0.000899
      f-3     :     0.001753
  4 C s       :     3.153417  s :     3.153417
      pz      :     0.941699  p :     2.500156
      px      :     0.772580
      py      :     0.785877
      dz2     :     0.010410  d :     0.131348
      dxz     :     0.019272
      dyz     :     0.028224
      dx2y2   :     0.039755
      dxy     :     0.033688
      f0      :     0.001073  f :     0.009218
      f+1     :     0.000866
      f-1     :     0.000835
      f+2     :     0.000949
      f-2     :     0.001341
      f+3     :     0.001147
      f-3     :     0.003006
  5 C s       :     3.059664  s :     3.059664
      pz      :     0.951762  p :     2.609167
      px      :     0.853790
      py      :     0.803615
      dz2     :     0.012717  d :     0.175387
      dxz     :     0.029489
      dyz     :     0.039355
      dx2y2   :     0.057236
      dxy     :     0.036590
      f0      :     0.001720  f :     0.015363
      f+1     :     0.001602
      f-1     :     0.001433
      f+2     :     0.001302
      f-2     :     0.002405
      f+3     :     0.001982
      f-3     :     0.004919
  6 O s       :     3.774003  s :     3.774003
      pz      :     1.757769  p :     4.569746
      px      :     1.354191
      py      :     1.457786
      dz2     :     0.004107  d :     0.030264
      dxz     :     0.006020
      dyz     :     0.002211
      dx2y2   :     0.011007
      dxy     :     0.006919
      f0      :     0.000267  f :     0.001665
      f+1     :     0.000314
      f-1     :     0.000218
      f+2     :     0.000220
      f-2     :     0.000110
      f+3     :     0.000310
      f-3     :     0.000226
  7 O s       :     3.769480  s :     3.769480
      pz      :     1.758202  p :     4.521288
      px      :     1.301464
      py      :     1.461622
      dz2     :     0.003808  d :     0.032158
      dxz     :     0.002898
      dyz     :     0.006198
      dx2y2   :     0.010696
      dxy     :     0.008557
      f0      :     0.000294  f :     0.001568
      f+1     :     0.000250
      f-1     :     0.000213
      f+2     :     0.000125
      f-2     :     0.000152
      f+3     :     0.000244
      f-3     :     0.000291
  8 C s       :     3.244145  s :     3.244145
      pz      :     0.909196  p :     2.955991
      px      :     0.895512
      py      :     1.151283
      dz2     :     0.013575  d :     0.087106
      dxz     :     0.025878
      dyz     :     0.015600
      dx2y2   :     0.014934
      dxy     :     0.017119
      f0      :     0.000774  f :     0.005253
      f+1     :     0.001052
      f-1     :     0.000345
      f+2     :     0.001343
      f-2     :     0.000493
      f+3     :     0.000391
      f-3     :     0.000856
  9 C s       :     3.255772  s :     3.255772
      pz      :     0.952706  p :     2.834766
      px      :     1.064060
      py      :     0.818001
      dz2     :     0.021952  d :     0.102240
      dxz     :     0.009639
      dyz     :     0.033802
      dx2y2   :     0.026793
      dxy     :     0.010054
      f0      :     0.000930  f :     0.007253
      f+1     :     0.000479
      f-1     :     0.001371
      f+2     :     0.001698
      f-2     :     0.001304
      f+3     :     0.000771
      f-3     :     0.000699
 10 N s       :     3.427313  s :     3.427313
      pz      :     1.255814  p :     3.784124
      px      :     1.283902
      py      :     1.244408
      dz2     :     0.008815  d :     0.046099
      dxz     :     0.009996
      dyz     :     0.008322
      dx2y2   :     0.012458
      dxy     :     0.006509
      f0      :     0.000067  f :     0.001891
      f+1     :     0.000191
      f-1     :     0.000330
      f+2     :     0.000714
      f-2     :     0.000175
      f+3     :     0.000278
      f-3     :     0.000136
 11 H s       :     0.646874  s :     0.646874
      pz      :     0.007676  p :     0.033910
      px      :     0.020056
      py      :     0.006178
 12 H s       :     0.652080  s :     0.652080
      pz      :     0.015203  p :     0.032707
      px      :     0.011066
      py      :     0.006438
 13 H s       :     0.661284  s :     0.661284
      pz      :     0.010213  p :     0.033110
      px      :     0.006547
      py      :     0.016350
 14 H s       :     0.846473  s :     0.846473
      pz      :     0.005806  p :     0.022290
      px      :     0.005313
      py      :     0.011172
 15 H s       :     0.860048  s :     0.860048
      pz      :     0.006323  p :     0.022066
      px      :     0.004927
      py      :     0.010815
 16 H s       :     0.854231  s :     0.854231
      pz      :     0.005131  p :     0.022152
      px      :     0.006119
      py      :     0.010901
 17 H s       :     0.620975  s :     0.620975
      pz      :     0.015507  p :     0.046213
      px      :     0.011914
      py      :     0.018792
 18 H s       :     0.619964  s :     0.619964
      pz      :     0.015727  p :     0.046528
      px      :     0.019453
      py      :     0.011347
 19 H s       :     0.806744  s :     0.806744
      pz      :     0.008107  p :     0.021426
      px      :     0.004744
      py      :     0.008574
 20 H s       :     0.805764  s :     0.805764
      pz      :     0.007087  p :     0.021951
      px      :     0.004801
      py      :     0.010063
 21 H s       :     0.793187  s :     0.793187
      pz      :     0.007037  p :     0.021457
      px      :     0.004560
      py      :     0.009861
 22 H s       :     0.796066  s :     0.796066
      pz      :     0.005037  p :     0.021430
      px      :     0.012964
      py      :     0.003428


                     *******************************
                     * LOEWDIN POPULATION ANALYSIS *
                     *******************************

----------------------
LOEWDIN ATOMIC CHARGES
----------------------
   0 C :   -0.120802
   1 C :   -0.121854
   2 C :   -0.270732
   3 C :   -0.128309
   4 C :   -0.187958
   5 C :   -0.264283
   6 O :    0.105168
   7 O :    0.122858
   8 C :   -0.222834
   9 C :   -0.253588
  10 N :    0.176048
  11 H :    0.218144
  12 H :    0.216583
  13 H :    0.216129
  14 H :    0.155075
  15 H :    0.154043
  16 H :    0.153169
  17 H :    0.207221
  18 H :    0.208357
  19 H :    0.158151
  20 H :    0.172468
  21 H :    0.154840
  22 H :    0.152106

-------------------------------
LOEWDIN REDUCED ORBITAL CHARGES
-------------------------------
  0 C s       :     2.764849  s :     2.764849
      pz      :     0.921776  p :     2.942822
      px      :     1.032556
      py      :     0.988489
      dz2     :     0.027451  d :     0.370320
      dxz     :     0.065764
      dyz     :     0.043380
      dx2y2   :     0.105102
      dxy     :     0.128624
      f0      :     0.003875  f :     0.042810
      f+1     :     0.005004
      f-1     :     0.002750
      f+2     :     0.005909
      f-2     :     0.004972
      f+3     :     0.007303
      f-3     :     0.012996
  1 C s       :     2.757999  s :     2.757999
      pz      :     0.946032  p :     2.953273
      px      :     1.016086
      py      :     0.991155
      dz2     :     0.028323  d :     0.368271
      dxz     :     0.068002
      dyz     :     0.042494
      dx2y2   :     0.117843
      dxy     :     0.111609
      f0      :     0.003897  f :     0.042310
      f+1     :     0.005181
      f-1     :     0.002366
      f+2     :     0.005923
      f-2     :     0.005065
      f+3     :     0.007250
      f-3     :     0.012628
  2 C s       :     2.712533  s :     2.712533
      pz      :     0.888989  p :     2.789779
      px      :     0.841047
      py      :     1.059743
      dz2     :     0.068340  d :     0.672977
      dxz     :     0.135846
      dyz     :     0.083379
      dx2y2   :     0.201208
      dxy     :     0.184204
      f0      :     0.006980  f :     0.095443
      f+1     :     0.011877
      f-1     :     0.005552
      f+2     :     0.016247
      f-2     :     0.009922
      f+3     :     0.015374
      f-3     :     0.029489
  3 C s       :     2.762544  s :     2.762544
      pz      :     0.934508  p :     2.943397
      px      :     1.019083
      py      :     0.989805
      dz2     :     0.041590  d :     0.380770
      dxz     :     0.065114
      dyz     :     0.035975
      dx2y2   :     0.101552
      dxy     :     0.136539
      f0      :     0.003072  f :     0.041598
      f+1     :     0.004117
      f-1     :     0.004128
      f+2     :     0.006679
      f-2     :     0.004340
      f+3     :     0.007150
      f-3     :     0.012113
  4 C s       :     2.711336  s :     2.711336
      pz      :     0.895502  p :     2.893382
      px      :     0.953738
      py      :     1.044142
      dz2     :     0.044135  d :     0.526587
      dxz     :     0.070376
      dyz     :     0.095663
      dx2y2   :     0.169388
      dxy     :     0.147025
      f0      :     0.004248  f :     0.056654
      f+1     :     0.004420
      f-1     :     0.004747
      f+2     :     0.006169
      f-2     :     0.008982
      f+3     :     0.008467
      f-3     :     0.019621
  5 C s       :     2.711928  s :     2.711928
      pz      :     0.896584  p :     2.780568
      px      :     0.987283
      py      :     0.896701
      dz2     :     0.061869  d :     0.676558
      dxz     :     0.098449
      dyz     :     0.126326
      dx2y2   :     0.201890
      dxy     :     0.188024
      f0      :     0.007717  f :     0.095229
      f+1     :     0.006783
      f-1     :     0.008811
      f+2     :     0.009254
      f-2     :     0.016193
      f+3     :     0.016712
      f-3     :     0.029760
  6 O s       :     3.326740  s :     3.326740
      pz      :     1.659173  p :     4.491869
      px      :     1.394352
      py      :     1.438344
      dz2     :     0.008523  d :     0.071263
      dxz     :     0.015382
      dyz     :     0.003288
      dx2y2   :     0.023634
      dxy     :     0.020436
      f0      :     0.000497  f :     0.004960
      f+1     :     0.000790
      f-1     :     0.000297
      f+2     :     0.000766
      f-2     :     0.000219
      f+3     :     0.001044
      f-3     :     0.001346
  7 O s       :     3.338554  s :     3.338554
      pz      :     1.658100  p :     4.462402
      px      :     1.299974
      py      :     1.504328
      dz2     :     0.007296  d :     0.071197
      dxz     :     0.007237
      dyz     :     0.011025
      dx2y2   :     0.027449
      dxy     :     0.018188
      f0      :     0.000541  f :     0.004989
      f+1     :     0.000404
      f-1     :     0.000442
      f+2     :     0.000382
      f-2     :     0.000607
      f+3     :     0.000965
      f-3     :     0.001647
  8 C s       :     2.772111  s :     2.772111
      pz      :     0.994227  p :     3.034709
      px      :     1.000043
      py      :     1.040440
      dz2     :     0.050992  d :     0.378224
      dxz     :     0.108520
      dyz     :     0.079643
      dx2y2   :     0.079427
      dxy     :     0.059643
      f0      :     0.006754  f :     0.037790
      f+1     :     0.008094
      f-1     :     0.002199
      f+2     :     0.006000
      f-2     :     0.004201
      f+3     :     0.003796
      f-3     :     0.006746
  9 C s       :     2.808957  s :     2.808957
      pz      :     1.013347  p :     2.969367
      px      :     1.054142
      py      :     0.901878
      dz2     :     0.078383  d :     0.426429
      dxz     :     0.059718
      dyz     :     0.140785
      dx2y2   :     0.107973
      dxy     :     0.039570
      f0      :     0.008182  f :     0.048835
      f+1     :     0.004148
      f-1     :     0.008706
      f+2     :     0.007031
      f-2     :     0.008954
      f+3     :     0.006242
      f-3     :     0.005572
 10 N s       :     2.980943  s :     2.980943
      pz      :     1.217039  p :     3.671078
      px      :     1.226229
      py      :     1.227810
      dz2     :     0.026056  d :     0.162195
      dxz     :     0.033885
      dyz     :     0.036486
      dx2y2   :     0.046506
      dxy     :     0.019261
      f0      :     0.001176  f :     0.009737
      f+1     :     0.001204
      f-1     :     0.001883
      f+2     :     0.001233
      f-2     :     0.001158
      f+3     :     0.001924
      f-3     :     0.001158
 11 H s       :     0.679593  s :     0.679593
      pz      :     0.021694  p :     0.102263
      px      :     0.062824
      py      :     0.017744
 12 H s       :     0.684350  s :     0.684350
      pz      :     0.046120  p :     0.099067
      px      :     0.034667
      py      :     0.018281
 13 H s       :     0.685021  s :     0.685021
      pz      :     0.032076  p :     0.098850
      px      :     0.018616
      py      :     0.048159
 14 H s       :     0.784856  s :     0.784856
      pz      :     0.015898  p :     0.060069
      px      :     0.014945
      py      :     0.029226
 15 H s       :     0.785285  s :     0.785285
      pz      :     0.017416  p :     0.060671
      px      :     0.014161
      py      :     0.029094
[...]
     33       0.015806  -0.033327   0.036218  -0.008507   0.009825   0.060205
     34      -0.001505   0.005639   0.003605   0.000273   0.000609  -0.012184
     35      -0.002389   0.003098  -0.001384  -0.000516   0.000737  -0.003041
     36      -0.000339  -0.001342   0.000011   0.000251  -0.000609   0.157987
     37      -0.000385   0.000447  -0.000346   0.000007   0.000022  -0.024109
     38      -0.000166   0.001330  -0.002466   0.000541  -0.001717   0.567956
     39      -0.001342   0.013368  -0.001688   0.000250  -0.000447   0.267138
     40      -0.002470   0.016930   0.001149   0.000368  -0.000577   0.671761
     41      -0.000539  -0.016619  -0.001428  -0.000294   0.000396  -0.348522
     42      -0.001781  -0.002995  -0.011640   0.393559   0.192173   0.000277
     43      -0.003407  -0.005757  -0.023003   0.766793   0.367225   0.000451
     44       0.001299   0.001865   0.007348  -0.247047  -0.119215  -0.000180
     45       0.010593   0.020465  -0.387656  -0.008180  -0.006389   0.000498
     46       0.021188   0.043651  -0.837598  -0.017450  -0.015286   0.001694
     47      -0.010240  -0.019135   0.367286   0.007671   0.006198  -0.001414
     48      -0.006286   0.000447   0.004775   0.212135  -0.443510  -0.000421
     49       0.008023  -0.001177  -0.006154  -0.378118   0.779930   0.000674
     50       0.001751   0.000048  -0.000433  -0.011572   0.025729  -0.000026
     51       0.000009   0.000060   0.000550   0.007328   0.003174   0.000450
     52       0.000161   0.000249   0.000665   0.002372   0.001886   0.001329
     53      -0.000068  -0.000040  -0.000252  -0.001957  -0.001058  -0.000175
     54       0.000164   0.000066   0.000489   0.001700  -0.000321   0.001775
     55       0.000132   0.000257  -0.001830  -0.000049  -0.000001   0.000438
     56      -0.000048  -0.000139   0.000406  -0.000447   0.000088  -0.000504
     57      -0.082690  -0.019562  -0.009243   0.000070  -0.000804  -0.000664
     58      -0.301330  -0.083601  -0.023439  -0.001024   0.000637  -0.002199
     59       0.282940   0.078747   0.022278   0.000547   0.000302   0.001469
     60       0.234307   0.014420   0.003152   0.003990  -0.004327  -0.000559
     61      -0.743398  -0.047913  -0.013092  -0.008538   0.006443   0.001610
     62      -0.377445  -0.024045  -0.006457  -0.004888   0.004130   0.002027
     63      -0.011681  -0.070590  -0.003701   0.000316  -0.001369   0.001969
     64      -0.073341  -0.534337  -0.031537  -0.001903  -0.005565   0.015525
     65       0.059389   0.428281   0.025702   0.002087   0.003500  -0.007187
     66       0.224953  -0.682960  -0.025910  -0.004836  -0.001844   0.008193
     67       0.031867  -0.093147  -0.004367  -0.000728  -0.000265   0.003491
     68      -0.049230   0.142547   0.004412   0.001207  -0.000333  -0.002434
                 66         67         68    
      0       0.000039  -0.000652  -0.000950
      1      -0.000035   0.000397  -0.000765
      2      -0.000018   0.000152   0.000426
      3       0.000011   0.001027   0.000275
      4       0.000120  -0.000153   0.000070
      5       0.000041  -0.000196  -0.000175
      6      -0.000029   0.001304   0.000211
      7       0.000019  -0.000706   0.002209
      8       0.000006  -0.000263  -0.000316
      9      -0.000060   0.000410   0.000157
     10      -0.000097  -0.000112   0.000094
     11       0.000041  -0.000116  -0.000063
     12       0.000198  -0.000173  -0.000193
     13       0.000058  -0.000065   0.000051
     14       0.000004   0.000029   0.000034
     15      -0.000016  -0.002714  -0.000905
     16      -0.000001  -0.000023  -0.000360
     17      -0.000010   0.000781   0.000338
     18      -0.000009  -0.000071   0.026975
     19      -0.000078   0.000596   0.054691
     20       0.000008  -0.000003  -0.013173
     21      -0.000057  -0.058353   0.000573
     22      -0.000014  -0.008983  -0.000143
     23       0.000018   0.017997  -0.000142
     24       0.000043  -0.000006   0.000052
     25      -0.000195  -0.000008   0.000016
     26       0.000250   0.000015  -0.000028
     27       0.000268   0.000007  -0.000011
     28       0.001325  -0.000033   0.000014
     29      -0.000886   0.000009   0.000024
     30      -0.003094   0.000273  -0.000140
     31       0.035880   0.000013  -0.000019
     32      -0.072332   0.000148  -0.000111
     33       0.017889  -0.003353   0.001576
     34       0.006983   0.000083   0.000452
     35      -0.013442  -0.001085   0.000443
     36       0.229457  -0.000459   0.000436
     37      -0.011698  -0.000043   0.000040
     38       0.772112  -0.001609   0.001739
     39      -0.204175  -0.000288   0.000103
     40      -0.494635  -0.000703   0.000246
     41       0.239254   0.000150  -0.000074
     42       0.000151   0.000298   0.004272
     43       0.000196  -0.001744   0.003444
     44       0.000011   0.000042  -0.001802
     45      -0.000535   0.000290  -0.000014
     46      -0.000816  -0.000381  -0.000629
     47       0.000426  -0.000723   0.000377
     48      -0.000222  -0.000440  -0.000550
     49       0.000501   0.000683   0.000230
     50      -0.000010   0.000029   0.000055
     51       0.000538  -0.005331  -0.417656
     52       0.001218  -0.005710  -0.882484
     53      -0.000207   0.001585   0.206849
     54       0.001010   0.943025  -0.006900
     55       0.000216   0.148421  -0.002035
     56      -0.000281  -0.291149   0.002522
     57       0.000631  -0.000142  -0.000255
     58       0.001133  -0.000196  -0.000052
     59      -0.000039   0.000283   0.000011
     60      -0.000954  -0.000223   0.000015
     61       0.001938   0.000098  -0.000121
     62       0.001186   0.000228  -0.000196
     63      -0.001133  -0.000111   0.000126
     64      -0.015046   0.000456  -0.000283
     65       0.010951  -0.000399   0.000298
     66      -0.004057  -0.000254  -0.000195
     67      -0.001331   0.000342  -0.000143
     68       0.001571   0.000105  -0.000209


-----------
IR SPECTRUM
-----------

 Mode   freq       eps      Int      T**2         TX        TY        TZ
       cm**-1   L/(mol*cm) km/mol    a.u.
----------------------------------------------------------------------------
  6:     58.55   0.001729    8.74  0.009213  (-0.004280  0.059293 -0.075359)
  7:     83.71   0.002561   12.94  0.009549  (-0.094291  0.008154  0.024336)
  8:    141.68   0.002139   10.81  0.004711  (-0.068300 -0.006617 -0.001541)
  9:    178.34   0.000111    0.56  0.000195  (-0.013216 -0.004375 -0.001108)
 10:    257.34   0.010531   53.22  0.012771  (-0.074760 -0.031423 -0.078704)
 11:    275.69   0.000312    1.58  0.000353  (-0.002536 -0.014721 -0.011404)
 12:    288.46   0.001515    7.65  0.001639  (-0.019397 -0.035512  0.001134)
 13:    303.14   0.001759    8.89  0.001810  ( 0.002185  0.003351  0.042359)
 14:    313.54   0.019051   96.28  0.018961  (-0.017277 -0.011482 -0.136129)
 15:    362.45   0.007033   35.54  0.006055  ( 0.059215  0.015282  0.048119)
 16:    410.28   0.000395    1.99  0.000300  (-0.015445 -0.004216 -0.006616)
 17:    441.59   0.000528    2.67  0.000373  ( 0.004248 -0.006025 -0.017857)
 18:    459.78   0.000362    1.83  0.000246  ( 0.009088 -0.012777 -0.000103)
 19:    489.64   0.013570   68.58  0.008649  ( 0.023160  0.016544  0.088535)
 20:    522.07   0.001931    9.76  0.001154  ( 0.031261 -0.013287  0.000384)
 21:    577.54   0.000574    2.90  0.000310  (-0.016586  0.002291  0.005457)
 22:    633.68   0.001541    7.79  0.000759  ( 0.003078 -0.007348 -0.026369)
 23:    701.24   0.001793    9.06  0.000798  (-0.026300 -0.009614  0.003715)
 24:    715.40   0.000236    1.19  0.000103  ( 0.007602  0.006704 -0.000244)
 25:    775.38   0.003512   17.75  0.001414  ( 0.023299 -0.015441 -0.025144)
 26:    787.13   0.004674   23.62  0.001853  (-0.013033  0.001985 -0.040977)
 27:    814.55   0.000153    0.77  0.000058  (-0.006076 -0.002412 -0.003966)
 28:    839.24   0.008631   43.62  0.003209  (-0.044261 -0.004481 -0.035076)
 29:    852.90   0.003672   18.56  0.001344  ( 0.030979  0.004824  0.018993)
 30:    884.63   0.000424    2.14  0.000149  ( 0.011093  0.002502  0.004482)
 31:    901.76   0.002066   10.44  0.000715  ( 0.022143  0.008368 -0.012430)
 32:    950.71   0.004256   21.51  0.001397  (-0.009107 -0.035782 -0.005799)
 33:    962.84   0.000968    4.89  0.000314  (-0.008181  0.007607  0.013749)
 34:   1048.36   0.013916   70.33  0.004142  ( 0.061901 -0.002951  0.017378)
 35:   1059.60   0.000283    1.43  0.000083  ( 0.000710  0.005042  0.007585)
 36:   1100.20   0.022034  111.35  0.006250  (-0.073765 -0.009416  0.026827)
 37:   1142.99   0.006712   33.92  0.001832  (-0.040087 -0.003761  0.014539)
 38:   1151.21   0.008448   42.69  0.002290  ( 0.040430 -0.025449 -0.002776)
 39:   1175.84   0.013368   67.56  0.003548  ( 0.027065 -0.052767  0.005576)
 40:   1216.82   0.001734    8.76  0.000445  (-0.018866  0.001470 -0.009307)
 41:   1264.03   0.006048   30.56  0.001493  ( 0.009798  0.036907 -0.005913)
 42:   1277.75   0.006640   33.56  0.001622  ( 0.039178 -0.006280 -0.006886)
 43:   1295.30   0.038241  193.26  0.009213  (-0.082146  0.049337  0.005566)
 44:   1314.38   0.009880   49.93  0.002346  ( 0.016868 -0.044881  0.006843)
 45:   1319.96   0.015439   78.02  0.003650  ( 0.055120 -0.019451 -0.015279)
 46:   1343.43   0.000519    2.62  0.000121  (-0.010576  0.000725 -0.002870)
 47:   1385.99   0.002362   11.94  0.000532  ( 0.008255  0.021392 -0.002458)
 48:   1426.83   0.003710   18.75  0.000812  ( 0.001938 -0.008652 -0.027072)
 49:   1435.57   0.021407  108.18  0.004653  ( 0.013546  0.054280  0.039034)
 50:   1446.47   0.003908   19.75  0.000843  ( 0.017299  0.003723  0.023021)
 51:   1460.74   0.001087    5.49  0.000232  (-0.012390 -0.005006 -0.007319)
 52:   1513.25   0.035773  180.78  0.007377  ( 0.077311 -0.035375 -0.012199)
 53:   1584.01   0.002911   14.71  0.000574  ( 0.003033  0.001041  0.023733)
 54:   1594.38   0.010501   53.07  0.002055  (-0.011310  0.042367 -0.011509)
 55:   1603.19   0.003215   16.25  0.000626  ( 0.004925  0.020303  0.013760)
 56:   1612.89   0.006747   34.10  0.001305  (-0.033058 -0.012940 -0.006721)
 57:   2979.50   0.077248  390.38  0.008091  ( 0.081831  0.018335  0.032531)
 58:   2984.97   0.033538  169.49  0.003506  (-0.055123 -0.019971 -0.008299)
 59:   3020.07   0.000474    2.40  0.000049  (-0.006056 -0.003478 -0.000462)
 60:   3040.36   0.000215    1.09  0.000022  (-0.002310  0.003184 -0.002568)
 61:   3080.12   0.000429    2.17  0.000043  ( 0.005601  0.000493 -0.003442)
 62:   3085.21   0.000838    4.24  0.000085  ( 0.005274  0.007547 -0.000120)
 63:   3101.53   0.000903    4.56  0.000091  (-0.009212  0.000861  0.002294)
 64:   3118.63   0.000112    0.57  0.000011  ( 0.000910 -0.003133  0.000782)
 65:   3361.76   0.017251   87.18  0.001601  ( 0.028009  0.024791  0.014223)
 66:   3422.22   0.015537   78.52  0.001417  ( 0.004600 -0.015480  0.033999)
 67:   3619.70   0.026778  135.32  0.002309  ( 0.045548 -0.011528 -0.010052)
 68:   3694.11   0.025571  129.23  0.002160  (-0.037777 -0.024329  0.011883)

* The epsilon (eps) is given for a Dirac delta lineshape.
** The dipole moment derivative (T) already includes vibrational overlap.

The first frequency considered to be a vibration is 6
The total number of vibrations considered is 63


--------------------------
THERMOCHEMISTRY AT 298.15K
--------------------------

Temperature         ... 298.15 K
Pressure            ... 1.00 atm
Total Mass          ... 154.19 AMU

Throughout the following assumptions are being made:
  (1) The electronic state is orbitally nondegenerate
  (2) There are no thermally accessible electronically excited states
  (3) Hindered rotations indicated by low frequency modes are not
      treated as such but are treated as vibrations and this may
      cause some error
  (4) All equations used are the standard statistical mechanics
      equations for an ideal gas
  (5) All vibrations are strictly harmonic

freq.      58.55  E(vib)   ...       0.51 
freq.      83.71  E(vib)   ...       0.48 
freq.     141.68  E(vib)   ...       0.41 
freq.     178.34  E(vib)   ...       0.37 
freq.     257.34  E(vib)   ...       0.30 
freq.     275.69  E(vib)   ...       0.28 
freq.     288.46  E(vib)   ...       0.27 
freq.     303.14  E(vib)   ...       0.26 
freq.     313.54  E(vib)   ...       0.25 
freq.     362.45  E(vib)   ...       0.22 
freq.     410.28  E(vib)   ...       0.19 
freq.     441.59  E(vib)   ...       0.17 
freq.     459.78  E(vib)   ...       0.16 
freq.     489.64  E(vib)   ...       0.15 
freq.     522.07  E(vib)   ...       0.13 
freq.     577.54  E(vib)   ...       0.11 
freq.     633.68  E(vib)   ...       0.09 
freq.     701.24  E(vib)   ...       0.07 
freq.     715.40  E(vib)   ...       0.07 
freq.     775.38  E(vib)   ...       0.05 
freq.     787.13  E(vib)   ...       0.05 
freq.     814.55  E(vib)   ...       0.05 
freq.     839.24  E(vib)   ...       0.04 
freq.     852.90  E(vib)   ...       0.04 
freq.     884.63  E(vib)   ...       0.04 
freq.     901.76  E(vib)   ...       0.03 
freq.     950.71  E(vib)   ...       0.03 
freq.     962.84  E(vib)   ...       0.03 
freq.    1048.36  E(vib)   ...       0.02 
freq.    1059.60  E(vib)   ...       0.02 
freq.    1100.20  E(vib)   ...       0.02 
freq.    1142.99  E(vib)   ...       0.01 
freq.    1151.21  E(vib)   ...       0.01 
freq.    1175.84  E(vib)   ...       0.01 
freq.    1216.82  E(vib)   ...       0.01 
freq.    1264.03  E(vib)   ...       0.01 
freq.    1277.75  E(vib)   ...       0.01 
freq.    1295.30  E(vib)   ...       0.01 
freq.    1314.38  E(vib)   ...       0.01 
freq.    1319.96  E(vib)   ...       0.01 
freq.    1343.43  E(vib)   ...       0.01 
freq.    1385.99  E(vib)   ...       0.00 
freq.    1426.83  E(vib)   ...       0.00 
freq.    1435.57  E(vib)   ...       0.00 
freq.    1446.47  E(vib)   ...       0.00 
freq.    1460.74  E(vib)   ...       0.00 
freq.    1513.25  E(vib)   ...       0.00 
freq.    1584.01  E(vib)   ...       0.00 
freq.    1594.38  E(vib)   ...       0.00 
freq.    1603.19  E(vib)   ...       0.00 
freq.    1612.89  E(vib)   ...       0.00 
freq.    2979.50  E(vib)   ...       0.00 
freq.    2984.97  E(vib)   ...       0.00 
freq.    3020.07  E(vib)   ...       0.00 
freq.    3040.36  E(vib)   ...       0.00 
freq.    3080.12  E(vib)   ...       0.00 
freq.    3085.21  E(vib)   ...       0.00 
freq.    3101.53  E(vib)   ...       0.00 
freq.    3118.63  E(vib)   ...       0.00 
freq.    3361.76  E(vib)   ...       0.00 
freq.    3422.22  E(vib)   ...       0.00 
freq.    3619.70  E(vib)   ...       0.00 
freq.    3694.11  E(vib)   ...       0.00 

------------
INNER ENERGY
------------

The inner energy is: U= E(el) + E(ZPE) + E(vib) + E(rot) + E(trans)
    E(el)   - is the total energy from the electronic structure calculation
              = E(kin-el) + E(nuc-el) + E(el-el) + E(nuc-nuc)
    E(ZPE)  - the the zero temperature vibrational energy from the frequency calculation
    E(vib)  - the the finite temperature correction to E(ZPE) due to population
              of excited vibrational states
    E(rot)  - is the rotational thermal energy
    E(trans)- is the translational thermal energy

Summary of contributions to the inner energy U:
Electronic energy                ...   -516.64385707 Eh
Zero point energy                ...      0.19196898 Eh     120.46 kcal/mol
Thermal vibrational correction   ...      0.00801738 Eh       5.03 kcal/mol
Thermal rotational correction    ...      0.00141627 Eh       0.89 kcal/mol
Thermal translational correction ...      0.00141627 Eh       0.89 kcal/mol
-----------------------------------------------------------------------
Total thermal energy                   -516.44103817 Eh


Summary of corrections to the electronic energy:
(perhaps to be used in another calculation)
Total thermal correction                  0.01084992 Eh       6.81 kcal/mol
Non-thermal (ZPE) correction              0.19196898 Eh     120.46 kcal/mol
-----------------------------------------------------------------------
Total correction                          0.20281890 Eh     127.27 kcal/mol


--------
ENTHALPY
--------

The enthalpy is H = U + kB*T
                kB is Boltzmann's constant
Total free energy                 ...   -516.44103817 Eh 
Thermal Enthalpy correction       ...      0.00094421 Eh       0.59 kcal/mol
-----------------------------------------------------------------------
Total Enthalpy                    ...   -516.44009396 Eh


Note: Only C1 symmetry has been detected, increase convergence thresholds 
      if your molecule has a higher symmetry. Symmetry factor of 1.0 is   
      used for the rotational entropy correction. 
 

Note: Rotational entropy computed according to Herzberg 
Infrared and Raman Spectra, Chapter V,1, Van Nostrand Reinhold, 1945 
Point Group:  C1, Symmetry Number:   1  
Rotational constants in cm-1:     0.068199     0.023213     0.019643 

Vibrational entropy computed according to the QRRHO of S. Grimme
Chem.Eur.J. 2012 18 9955


-------
ENTROPY
-------

The entropy contributions are T*S = T*(S(el)+S(vib)+S(rot)+S(trans))
     S(el)   - electronic entropy
     S(vib)  - vibrational entropy
     S(rot)  - rotational entropy
     S(trans)- translational entropy
The entropies will be listed as multiplied by the temperature to get
units of energy

Electronic entropy                ...      0.00000000 Eh      0.00 kcal/mol
Vibrational entropy               ...      0.01327224 Eh      8.33 kcal/mol
Rotational entropy                ...      0.01441037 Eh      9.04 kcal/mol
Translational entropy             ...      0.01948450 Eh     12.23 kcal/mol
-----------------------------------------------------------------------
Final entropy term                ...      0.04716710 Eh     29.60 kcal/mol

In case the symmetry of your molecule has not been determined correctly
or in case you have a reason to use a different symmetry number we print 
out the resulting rotational entropy values for sn=1,12 :
 --------------------------------------------------------
|  sn= 1 | S(rot)=       0.01441037 Eh      9.04 kcal/mol|
|  sn= 2 | S(rot)=       0.01375591 Eh      8.63 kcal/mol|
|  sn= 3 | S(rot)=       0.01337308 Eh      8.39 kcal/mol|
|  sn= 4 | S(rot)=       0.01310145 Eh      8.22 kcal/mol|
|  sn= 5 | S(rot)=       0.01289077 Eh      8.09 kcal/mol|
|  sn= 6 | S(rot)=       0.01271862 Eh      7.98 kcal/mol|
|  sn= 7 | S(rot)=       0.01257308 Eh      7.89 kcal/mol|
|  sn= 8 | S(rot)=       0.01244700 Eh      7.81 kcal/mol|
|  sn= 9 | S(rot)=       0.01233579 Eh      7.74 kcal/mol|
|  sn=10 | S(rot)=       0.01223631 Eh      7.68 kcal/mol|
|  sn=11 | S(rot)=       0.01214632 Eh      7.62 kcal/mol|
|  sn=12 | S(rot)=       0.01206417 Eh      7.57 kcal/mol|
 --------------------------------------------------------


-------------------
GIBBS FREE ENERGY
-------------------

The Gibbs free energy is G = H - T*S

Total enthalpy                    ...   -516.44009396 Eh 
Total entropy correction          ...     -0.04716710 Eh    -29.60 kcal/mol
-----------------------------------------------------------------------
Final Gibbs free energy         ...   -516.48726106 Eh

For completeness - the Gibbs free energy minus the electronic energy
G-E(el)                           ...      0.15659600 Eh     98.27 kcal/mol



Timings for individual modules:

Sum of individual times         ...     2235.165 sec (=  37.253 min)
GTO integral calculation        ...        7.383 sec (=   0.123 min)   0.3 %
SCF iterations                  ...      111.806 sec (=   1.863 min)   5.0 %
SCF Gradient evaluation         ...       55.081 sec (=   0.918 min)   2.5 %
Geometry relaxation             ...        0.270 sec (=   0.004 min)   0.0 %
Numerical frequency calculation ...     2060.625 sec (=  34.344 min)  92.2 %
                             ****ORCA TERMINATED NORMALLY****
TOTAL RUN TIME: 0 days 0 hours 37 minutes 9 seconds 462 msec
