
                                 *****************
                                 * O   R   C   A *
                                 *****************

                                            #,                                       
                                            ###                                      
                                            ####                                     
                                            #####                                    
                                            ######                                   
                                           ########,                                 
                                     ,,################,,,,,                         
                               ,,#################################,,                 
                          ,,##########################################,,             
                       ,#########################################, ''#####,          
                    ,#############################################,,   '####,        
                  ,##################################################,,,,####,       
                ,###########''''           ''''###############################       
              ,#####''   ,,,,##########,,,,          '''####'''          '####       
            ,##' ,,,,###########################,,,                        '##       
           ' ,,###''''                  '''############,,,                           
         ,,##''                                '''############,,,,        ,,,,,,###''
      ,#''                                            '''#######################'''  
     '                                                          ''''####''''         
             ,#######,   #######,   ,#######,      ##                                
            ,#'     '#,  ##    ##  ,#'     '#,    #''#        ######   ,####,        
            ##       ##  ##   ,#'  ##            #'  '#       #        #'  '#        
            ##       ##  #######   ##           ,######,      #####,   #    #        
            '#,     ,#'  ##    ##  '#,     ,#' ,#      #,         ##   #,  ,#        
             '#######'   ##     ##  '#######'  #'      '#     #####' # '####'        



                  #######################################################
                  #                        -***-                        #
                  #          Department of theory and spectroscopy      #
                  #    Directorship and core code : Frank Neese         #
                  #        Max Planck Institute fuer Kohlenforschung    #
                  #                Kaiser Wilhelm Platz 1               #
                  #                 D-45470 Muelheim/Ruhr               #
                  #                      Germany                        #
                  #                                                     #
                  #                  All rights reserved                #
                  #                        -***-                        #
                  #######################################################


                         Program Version 5.0.2 -  RELEASE  -


 With contributions from (in alphabetic order):
   Daniel Aravena         : Magnetic Suceptibility
   Michael Atanasov       : Ab Initio Ligand Field Theory (pilot matlab implementation)
   Alexander A. Auer      : GIAO ZORA, VPT2 properties, NMR spectrum
   Ute Becker             : Parallelization
   Giovanni Bistoni       : ED, misc. LED, open-shell LED, HFLD
   Martin Brehm           : Molecular dynamics
   Dmytro Bykov           : SCF Hessian
   Vijay G. Chilkuri      : MRCI spin determinant printing, contributions to CSF-ICE
   Dipayan Datta          : RHF DLPNO-CCSD density
   Achintya Kumar Dutta   : EOM-CC, STEOM-CC
   Dmitry Ganyushin       : Spin-Orbit,Spin-Spin,Magnetic field MRCI
   Miquel Garcia          : C-PCM and meta-GGA Hessian, CC/C-PCM, Gaussian charge scheme
   Yang Guo               : DLPNO-NEVPT2, F12-NEVPT2, CIM, IAO-localization
   Andreas Hansen         : Spin unrestricted coupled pair/coupled cluster methods
   Benjamin Helmich-Paris : MC-RPA, TRAH-SCF, COSX integrals
   Lee Huntington         : MR-EOM, pCC
   Robert Izsak           : Overlap fitted RIJCOSX, COSX-SCS-MP3, EOM
   Marcus Kettner         : VPT2
   Christian Kollmar      : KDIIS, OOCD, Brueckner-CCSD(T), CCSD density, CASPT2, CASPT2-K
   Simone Kossmann        : Meta GGA functionals, TD-DFT gradient, OOMP2, MP2 Hessian
   Martin Krupicka        : Initial AUTO-CI
   Lucas Lang             : DCDCAS
   Marvin Lechner         : AUTO-CI (C++ implementation), FIC-MRCC
   Dagmar Lenk            : GEPOL surface, SMD
   Dimitrios Liakos       : Extrapolation schemes; Compound Job, initial MDCI parallelization
   Dimitrios Manganas     : Further ROCIS development; embedding schemes
   Dimitrios Pantazis     : SARC Basis sets
   Anastasios Papadopoulos: AUTO-CI, single reference methods and gradients
   Taras Petrenko         : DFT Hessian,TD-DFT gradient, ASA, ECA, R-Raman, ABS, FL, XAS/XES, NRVS
   Peter Pinski           : DLPNO-MP2, DLPNO-MP2 Gradient
   Christoph Reimann      : Effective Core Potentials
   Marius Retegan         : Local ZFS, SOC
   Christoph Riplinger    : Optimizer, TS searches, QM/MM, DLPNO-CCSD(T), (RO)-DLPNO pert. Triples
   Tobias Risthaus        : Range-separated hybrids, TD-DFT gradient, RPA, STAB
   Michael Roemelt        : Original ROCIS implementation
   Masaaki Saitow         : Open-shell DLPNO-CCSD energy and density
   Barbara Sandhoefer     : DKH picture change effects
   Avijit Sen             : IP-ROCIS
   Kantharuban Sivalingam : CASSCF convergence, NEVPT2, FIC-MRCI
   Bernardo de Souza      : ESD, SOC TD-DFT
   Georgi Stoychev        : AutoAux, RI-MP2 NMR, DLPNO-MP2 response
   Willem Van den Heuvel  : Paramagnetic NMR
   Boris Wezisla          : Elementary symmetry handling
   Frank Wennmohs         : Technical directorship


 We gratefully acknowledge several colleagues who have allowed us to
 interface, adapt or use parts of their codes:
   Stefan Grimme, W. Hujo, H. Kruse, P. Pracht,  : VdW corrections, initial TS optimization,
                  C. Bannwarth, S. Ehlert          DFT functionals, gCP, sTDA/sTD-DF
   Ed Valeev, F. Pavosevic, A. Kumar             : LibInt (2-el integral package), F12 methods
   Garnet Chan, S. Sharma, J. Yang, R. Olivares  : DMRG
   Ulf Ekstrom                                   : XCFun DFT Library
   Mihaly Kallay                                 : mrcc  (arbitrary order and MRCC methods)
   Jiri Pittner, Ondrej Demel                    : Mk-CCSD
   Frank Weinhold                                : gennbo (NPA and NBO analysis)
   Christopher J. Cramer and Donald G. Truhlar   : smd solvation model
   Lars Goerigk                                  : TD-DFT with DH, B97 family of functionals
   V. Asgeirsson, H. Jonsson                     : NEB implementation
   FAccTs GmbH                                   : IRC, NEB, NEB-TS, DLPNO-Multilevel, CI-OPT
                                                   MM, QMMM, 2- and 3-layer-ONIOM, Crystal-QMMM,
                                                   LR-CPCM, SF, NACMEs, symmetry and pop. for TD-DFT,
                                                   nearIR, NL-DFT gradient (VV10), updates on ESD,
                                                   ML-optimized integration grids
   S Lehtola, MJT Oliveira, MAL Marques          : LibXC Library
   Liviu Ungur et al                             : ANISO software


 Your calculation uses the libint2 library for the computation of 2-el integrals
 For citations please refer to: http://libint.valeyev.net

 Your ORCA version has been built with support for libXC version: 5.1.0
 For citations please refer to: https://tddft.org/programs/libxc/

 This ORCA versions uses:
   CBLAS   interface :  Fast vector & matrix operations
   LAPACKE interface :  Fast linear algebra routines
   SCALAPACK package :  Parallel linear algebra routines
   Shared memory     :  Shared parallel matrices
   BLAS/LAPACK       :  OpenBLAS 0.3.15  USE64BITINT DYNAMIC_ARCH NO_AFFINITY Haswell SINGLE_THREADED
        Core in use  :  Haswell
   Copyright (c) 2011-2014, The OpenBLAS Project


Your calculation utilizes the atom-pairwise dispersion correction
with the Becke-Johnson damping scheme (D3BJ)
Cite in your paper:
S.Grimme, S.Ehrlich, L.Goerigk, J Comput Chem, (2011), 32, 1456–1465 
S.Grimme, J.Antony, S.Ehrlich and H.Krieg, J.Chem.Phys., 132, (2010), 154104 
   

================================================================================

----- Orbital basis set information -----
Your calculation utilizes the basis: def2-TZVP
   F. Weigend and R. Ahlrichs, Phys. Chem. Chem. Phys. 7, 3297 (2005).

----- AuxJ basis set information -----
Your calculation utilizes the auxiliary basis: def2/J
   F. Weigend, Phys. Chem. Chem. Phys. 8, 1057 (2006).

================================================================================
                                        WARNINGS
                       Please study these warnings very carefully!
================================================================================


WARNING: your system is open-shell and RHF/RKS was chosen
  ===> : WILL SWITCH to UHF/UKS


INFO   : the flag for use of the SHARK integral package has been found!

Your calculation utilizes the atom-pairwise dispersion correction
with the Becke-Johnson damping scheme (D3BJ)
Cite in your paper:
S.Grimme, S.Ehrlich, L.Goerigk, J Comput Chem, (2011), 32, 1456–1465 
S.Grimme, J.Antony, S.Ehrlich and H.Krieg, J.Chem.Phys., 132, (2010), 154104 
   

================================================================================

----- Orbital basis set information -----
Your calculation utilizes the basis: def2-TZVP
   F. Weigend and R. Ahlrichs, Phys. Chem. Chem. Phys. 7, 3297 (2005).

----- AuxJ basis set information -----
Your calculation utilizes the auxiliary basis: def2/J
   F. Weigend, Phys. Chem. Chem. Phys. 8, 1057 (2006).

================================================================================
                                        WARNINGS
                       Please study these warnings very carefully!
================================================================================


WARNING: MOInp is set but Guess=PModel. MOInp will be ignored!
         To read the initial guess from a file you must also specify
         'MORead' in the simple input or 'Guess MORead' in the %scf block


INFO   : the flag for use of the SHARK integral package has been found!

Your calculation utilizes the atom-pairwise dispersion correction
with the Becke-Johnson damping scheme (D3BJ)
Cite in your paper:
S.Grimme, S.Ehrlich, L.Goerigk, J Comput Chem, (2011), 32, 1456–1465 
S.Grimme, J.Antony, S.Ehrlich and H.Krieg, J.Chem.Phys., 132, (2010), 154104 
   

================================================================================

----- Orbital basis set information -----
Your calculation utilizes the basis: def2-TZVP
   F. Weigend and R. Ahlrichs, Phys. Chem. Chem. Phys. 7, 3297 (2005).

----- AuxJ basis set information -----
Your calculation utilizes the auxiliary basis: def2/J
   F. Weigend, Phys. Chem. Chem. Phys. 8, 1057 (2006).

================================================================================
                                        WARNINGS
                       Please study these warnings very carefully!
================================================================================


WARNING: MOInp is set but Guess=PModel. MOInp will be ignored!
         To read the initial guess from a file you must also specify
         'MORead' in the simple input or 'Guess MORead' in the %scf block


INFO   : the flag for use of the SHARK integral package has been found!

Your calculation utilizes the atom-pairwise dispersion correction
with the Becke-Johnson damping scheme (D3BJ)
Cite in your paper:
S.Grimme, S.Ehrlich, L.Goerigk, J Comput Chem, (2011), 32, 1456–1465 
S.Grimme, J.Antony, S.Ehrlich and H.Krieg, J.Chem.Phys., 132, (2010), 154104 
   

================================================================================

----- Orbital basis set information -----
Your calculation utilizes the basis: def2-TZVP
   F. Weigend and R. Ahlrichs, Phys. Chem. Chem. Phys. 7, 3297 (2005).

----- AuxJ basis set information -----
Your calculation utilizes the auxiliary basis: def2/J
   F. Weigend, Phys. Chem. Chem. Phys. 8, 1057 (2006).

================================================================================
                                        WARNINGS
                       Please study these warnings very carefully!
================================================================================


WARNING: MOInp is set but Guess=PModel. MOInp will be ignored!
         To read the initial guess from a file you must also specify
         'MORead' in the simple input or 'Guess MORead' in the %scf block


INFO   : the flag for use of the SHARK integral package has been found!

Your calculation utilizes the atom-pairwise dispersion correction
with the Becke-Johnson damping scheme (D3BJ)
Cite in your paper:
S.Grimme, S.Ehrlich, L.Goerigk, J Comput Chem, (2011), 32, 1456–1465 
S.Grimme, J.Antony, S.Ehrlich and H.Krieg, J.Chem.Phys., 132, (2010), 154104 
   

================================================================================

----- Orbital basis set information -----
Your calculation utilizes the basis: def2-TZVP
   F. Weigend and R. Ahlrichs, Phys. Chem. Chem. Phys. 7, 3297 (2005).

----- AuxJ basis set information -----
Your calculation utilizes the auxiliary basis: def2/J
   F. Weigend, Phys. Chem. Chem. Phys. 8, 1057 (2006).

================================================================================
                                        WARNINGS
                       Please study these warnings very carefully!
================================================================================


WARNING: MOInp is set but Guess=PModel. MOInp will be ignored!
         To read the initial guess from a file you must also specify
         'MORead' in the simple input or 'Guess MORead' in the %scf block


INFO   : the flag for use of the SHARK integral package has been found!

================================================================================
                                       INPUT FILE
================================================================================
NAME = ex.inp
|  1> ! PBE D3 def2-TZVP opt PModel
|  2> %pal nprocs=16 end
|  3> %geom maxiter=150 end
|  4> *xyz 2 2
|  5> 6       -0.074381000     -1.017724000     -0.365733000
|  6> 6       -1.104295000      1.582582000     -0.145174000
|  7> 6       -1.404297000     -0.807838000     -0.028468000
|  8> 6        0.764127000      0.082008000     -0.598285000
|  9> 6        0.237318000      1.380673000     -0.485702000
| 10> 6       -1.918680000      0.480698000      0.082127000
| 11> 8       -3.237740000      0.612654000      0.417989000
| 12> 8       -2.212182000     -1.885801000      0.196219000
| 13> 6        2.216363000     -0.129253000     -0.958825000
| 14> 6        3.082353000     -0.623390000      0.210232000
| 15> 7        3.177358000      0.336596000      1.311590000
| 16> 1        0.300199000     -2.034529000     -0.445753000
| 17> 1       -1.486399000      2.594964000     -0.065194000
| 18> 1        0.872918000      2.245792000     -0.664027000
| 19> 1       -3.446612000      1.561874000      0.452057000
| 20> 1       -3.082382000     -1.496456000      0.413871000
| 21> 1        2.639984000      0.798710000     -1.364264000
| 22> 1        2.266265000     -0.859784000     -1.776551000
| 23> 1        2.697246000     -1.571127000      0.602530000
| 24> 1        4.094823000     -0.820415000     -0.159063000
| 25> 1        2.243593000      0.479729000      1.700370000
| 26> 1        3.467199000      1.243717000      0.950192000
| 27> Cu2      4.764860235     -0.646749109      1.331403296
| 28> *
| 29> 
| 30> $new_job
| 31> %pal nprocs=16 end
| 32> %geom maxiter=150 end
| 33> ! PBE D3 def2-TZVP opt PModel NOAUTOSTART
| 34> *xyz 2 2
| 35> 6       -0.046652000     -0.911071000     -0.532758000
| 36> 6       -1.135871000      1.590984000      0.120364000
| 37> 6       -1.381293000     -0.790692000     -0.171165000
| 38> 6        0.766734000      0.230357000     -0.570469000
| 39> 6        0.210423000      1.479188000     -0.241853000
| 40> 6       -1.925139000      0.448711000      0.153453000
| 41> 8       -3.247017000      0.492122000      0.501091000
| 42> 8       -2.163985000     -1.909307000     -0.134001000
| 43> 6        2.225367000      0.115784000     -0.948125000
| 44> 6        3.187017000      0.283614000      0.238177000
| 45> 7        3.056643000     -0.765978000      1.249695000
| 46> 1        0.350146000     -1.891510000     -0.780768000
| 47> 1       -1.540199000      2.566466000      0.369856000
| 48> 1        0.828192000      2.374941000     -0.266569000
| 49> 1       -3.475863000      1.416560000      0.698663000
| 50> 1       -3.044027000     -1.580947000      0.138402000
| 51> 1        2.448055000      0.881624000     -1.702239000
| 52> 1        2.410633000     -0.847709000     -1.440388000
| 53> 1        4.216463000      0.270880000     -0.136514000
| 54> 1        3.036819000      1.255781000      0.720669000
| 55> 1        3.152908000     -1.679303000      0.806926000
| 56> 1        2.104875000     -0.748710000      1.621641000
| 57> Cu2      4.649919579     -0.421364793      2.872258244
| 58> *
| 59> 
| 60> $new_job
| 61> %pal nprocs=16 end
| 62> %geom maxiter=150 end
| 63> ! PBE D3 def2-TZVP opt PModel NOAUTOSTART
| 64> *xyz 2 2
| 65> 6       -0.096290000     -0.980680000     -0.380034000
| 66> 6       -1.093748000      1.628719000     -0.119334000
| 67> 6       -1.426063000     -0.761674000     -0.034967000
| 68> 6        0.753785000      0.116531000     -0.597470000
| 69> 6        0.242883000      1.419760000     -0.465428000
| 70> 6       -1.916883000      0.534394000      0.093448000
| 71> 8       -3.223537000      0.738544000      0.432986000
| 72> 8       -2.294151000     -1.794580000      0.190192000
| 73> 6        2.204965000     -0.098569000     -0.963399000
| 74> 6        3.061932000     -0.647382000      0.187695000
| 75> 7        3.161017000      0.263425000      1.328196000
| 76> 1        0.289586000     -1.990431000     -0.482505000
| 77> 1       -1.488408000      2.634977000     -0.017445000
| 78> 1        0.883530000      2.283311000     -0.631270000
| 79> 1       -3.593589000     -0.161702000      0.527334000
| 80> 1       -1.807899000     -2.628635000      0.073169000
| 81> 1        2.641810000      0.838598000     -1.331885000
| 82> 1        2.246887000     -0.798253000     -1.808050000
| 83> 1        2.665647000     -1.606474000      0.539090000
| 84> 1        4.073806000     -0.840366000     -0.185405000
| 85> 1        2.224215000      0.433815000      1.699234000
| 86> 1        3.495319000      1.172886000      1.011874000
| 87> Cu2      4.569157802     -0.672654747      2.887328512
| 88> *
| 89> 
| 90> $new_job
| 91> %pal nprocs=16 end
| 92> %geom maxiter=150 end
| 93> ! PBE D3 def2-TZVP opt PModel NOAUTOSTART
| 94> *xyz 2 2
| 95> 6       -0.097842000     -0.920923000     -0.507016000
| 96> 6       -1.088360000      1.633502000      0.099122000
| 97> 6       -1.428703000     -0.744990000     -0.141290000
| 98> 6        0.756518000      0.192278000     -0.571721000
| 99> 6        0.248624000      1.467925000     -0.268154000
|100> 6       -1.915788000      0.523640000      0.159826000
|101> 8       -3.223202000      0.684992000      0.518892000
|102> 8       -2.301868000     -1.795143000     -0.062972000
|103> 6        2.207753000      0.023049000     -0.960862000
|104> 6        3.195356000      0.258187000      0.192596000
|105> 7        3.050100000     -0.699765000      1.289265000
|106> 1        0.284043000     -1.909754000     -0.741520000
|107> 1       -1.479477000      2.618504000      0.334658000
|108> 1        0.893223000      2.343263000     -0.316124000
|109> 1       -3.596815000     -0.218147000      0.490285000
|110> 1       -1.826082000     -2.604210000     -0.317039000
|111> 1        2.430202000      0.726552000     -1.773489000
|112> 1        2.368378000     -0.977823000     -1.382028000
|113> 1        4.216832000      0.180995000     -0.195948000
|114> 1        3.085180000      1.271284000      0.594843000
|115> 1        3.090981000     -1.649669000      0.924310000
|116> 1        2.118048000     -0.597443000      1.694836000
|117> Cu2       4.719302986     -0.315483855      2.824220827
|118> *
|119> 
|120> $new_job
|121> %pal nprocs=16 end
|122> %geom maxiter=150 end
|123> ! PBE D3 def2-TZVP opt PModel NOAUTOSTART
|124> *xyz 2 2
|125> 6       -0.049461000     -0.828565000     -0.561212000
|126> 6       -1.172466000      1.627940000      0.197374000
|127> 6       -1.385624000     -0.747650000     -0.184629000
|128> 6        0.742258000      0.331521000     -0.562141000
|129> 6        0.170509000      1.557196000     -0.178807000
|130> 6       -1.939028000      0.473028000      0.191172000
|131> 8       -3.251769000      0.541284000      0.560998000
|132> 8       -2.197998000     -1.848023000     -0.165013000
|133> 6        2.201740000      0.257709000     -0.950510000
|134> 6        3.155311000      0.222943000      0.252043000
|135> 7        3.032140000     -1.008935000      1.033705000
|136> 1        0.391890000     -1.778825000     -0.848292000
|137> 1       -1.615604000      2.574160000      0.491949000
|138> 1        0.769067000      2.465545000     -0.172506000
|139> 1       -3.575698000     -0.377350000      0.474120000
|140> 1       -1.673244000     -2.611967000     -0.460856000
|141> 1        2.440663000      1.130512000     -1.571924000
|142> 1        2.374118000     -0.616184000     -1.592177000
|143> 1        4.185601000      0.294398000     -0.113247000
|144> 1        2.980476000      1.084018000      0.907054000
|145> 1        2.091859000     -1.052374000      1.430225000
|146> 1        3.664593000     -0.960214000      1.832092000
|147> Cu2       3.491981327     -2.809395896     -0.321612865
|148> *
|149> 
|150>                          ****END OF INPUT****
================================================================================


                 $$$$$$$$$$$$$$$$$$$$$$$$$$$$$$$$$$$$$$$$$$$$$$ 
                 $ THERE ARE  5 JOBS TO BE PROCESSED THIS RUN $
                 $$$$$$$$$$$$$$$$$$$$$$$$$$$$$$$$$$$$$$$$$$$$$$ 




                 $$$$$$$$$$$$$$$$  JOB NUMBER  1 $$$$$$$$$$$$$$


                       *****************************
                       * Geometry Optimization Run *
                       *****************************

Geometry optimization settings:
Update method            Update   .... BFGS
Choice of coordinates    CoordSys .... Z-matrix Internals
Initial Hessian          InHess   .... Almoef's Model

Convergence Tolerances:
Energy Change            TolE     ....  5.0000e-06 Eh
Max. Gradient            TolMAXG  ....  3.0000e-04 Eh/bohr
RMS Gradient             TolRMSG  ....  1.0000e-04 Eh/bohr
Max. Displacement        TolMAXD  ....  4.0000e-03 bohr
RMS Displacement         TolRMSD  ....  2.0000e-03 bohr
Strict Convergence                ....  False
------------------------------------------------------------------------------
                        ORCA OPTIMIZATION COORDINATE SETUP
------------------------------------------------------------------------------

The optimization will be done in new redundant internal coordinates
Making redundant internal coordinates   ...  (new redundants) done
Evaluating the initial hessian          ...  (Almloef) done
Evaluating the coordinates              ...  done
Calculating the B-matrix                .... done
Calculating the G-matrix                .... done
Diagonalizing the G-matrix              .... done
Small eigenvalue found = 1.673e-02
Small eigenvalue found = 2.754e-02
The first mode is                       ....   80
The number of degrees of freedom        ....   63

    -----------------------------------------------------------------
                    Redundant Internal Coordinates


    -----------------------------------------------------------------
         Definition                    Initial Value    Approx d2E/dq
    -----------------------------------------------------------------
      1. B(C   2,C   0)                  1.3880         0.629460   
      2. B(C   3,C   0)                  1.4024         0.597082   
      3. B(C   4,C   3)                  1.4060         0.589210   
      4. B(C   4,C   1)                  1.3988         0.604913   
      5. B(C   5,C   2)                  1.3918         0.620647   
      6. B(C   5,C   1)                  1.3889         0.627331   
      7. B(O   6,C   5)                  1.3675         0.607753   
      8. B(O   7,C   2)                  1.3657         0.611825   
      9. B(C   8,C   3)                  1.5112         0.400343   
     10. B(C   9,C   8)                  1.5365         0.364772   
     11. B(N  10,C   9)                  1.4641         0.426240   
     12. B(H  11,C   0)                  1.0866         0.364684   
     13. B(H  12,C   1)                  1.0850         0.366718   
     14. B(H  13,C   4)                  1.0882         0.362465   
     15. B(H  14,O   6)                  0.9725         0.496572   
     16. B(H  15,O   7)                  0.9779         0.486937   
     17. B(H  16,C   8)                  1.0977         0.350053   
     18. B(H  17,C   8)                  1.0977         0.350117   
     19. B(H  18,C   9)                  1.0956         0.352725   
     20. B(H  19,C   9)                  1.0956         0.352795   
     21. B(H  20,N  10)                  1.0215         0.414740   
     22. B(H  21,N  10)                  1.0186         0.419297   
     23. B(Cu 22,H  19)                  1.6434         0.477214   
     24. B(Cu 22,N  10)                  1.8675         0.979926   
     25. B(Cu 22,C   9)                  2.0220         0.620269   
     26. A(C   2,C   0,C   3)          119.6452         0.432312   
     27. A(C   3,C   0,H  11)          121.0323         0.351419   
     28. A(C   2,C   0,H  11)          119.3225         0.354574   
     29. A(C   5,C   1,H  12)          121.4445         0.354705   
     30. A(C   4,C   1,H  12)          119.3656         0.352525   
     31. A(C   4,C   1,C   5)          119.1899         0.433062   
     32. A(C   0,C   2,C   5)          120.8921         0.435332   
     33. A(C   0,C   2,O   7)          119.1714         0.431371   
     34. A(C   5,C   2,O   7)          119.9365         0.430281   
     35. A(C   4,C   3,C   8)          120.5521         0.397959   
     36. A(C   0,C   3,C   4)          119.1460         0.427215   
     37. A(C   0,C   3,C   8)          120.3013         0.398888   
     38. A(C   1,C   4,C   3)          120.8104         0.428214   
     39. A(C   3,C   4,H  13)          120.1552         0.350271   
     40. A(C   1,C   4,H  13)          119.0344         0.351831   
     41. A(C   1,C   5,O   6)          121.9523         0.430592   
     42. A(C   1,C   5,C   2)          120.3164         0.435067   
     43. A(C   2,C   5,O   6)          117.7313         0.429765   
     44. A(C   5,O   6,H  14)          108.0558         0.365950   
     45. A(C   2,O   7,H  15)          104.4047         0.365141   
     46. A(C   3,C   8,C   9)          113.8954         0.366183   
     47. A(C   3,C   8,H  17)          108.3290         0.326518   
     48. A(C   9,C   8,H  16)          109.5962         0.321558   
     49. A(C   3,C   8,H  16)          109.9260         0.326508   
     50. A(C   9,C   8,H  17)          109.0967         0.321568   
     51. A(H  16,C   8,H  17)          105.6596         0.288279   
     52. A(C   8,C   9,H  19)          108.7976         0.321969   
     53. A(N  10,C   9,H  18)          108.7015         0.328331   
     54. A(C   8,C   9,H  18)          110.6411         0.321959   
     55. A(N  10,C   9,H  19)          108.1504         0.328341   
     56. A(C   8,C   9,N  10)          113.4568         0.367830   
     57. A(H  19,C   9,Cu 22)           54.2565         0.392415   
     58. A(H  18,C   9,Cu 22)           94.8155         0.392401   
     59. A(N  10,C   9,Cu 22)           62.3847         0.452143   
     60. A(C   8,C   9,Cu 22)          153.4566         0.442474   
     61. A(H  18,C   9,H  19)          106.8556         0.288967   
     62. A(H  21,N  10,Cu 22)          103.3451         0.432823   
     63. A(H  20,N  10,Cu 22)          147.8618         0.431974   
     64. A(C   9,N  10,Cu 22)           73.6136         0.489398   
     65. A(H  20,N  10,H  21)          105.6854         0.299703   
     66. A(C   9,N  10,H  21)          109.6031         0.334981   
     67. A(C   9,N  10,H  20)          108.5931         0.334374   
     68. A(C   9,H  19,Cu 22)           92.9849         0.348342   
     69. A(N  10,Cu 22,H  19)           72.5079         0.522857   
     70. A(C   9,Cu 22,H  19)           32.7585         0.482489   
     71. A(C   9,Cu 22,N  10)           44.0017         0.596587   
     72. D(O   7,C   2,C   0,H  11)      0.0448         0.027469   
     73. D(C   5,C   2,C   0,C   3)      0.0160         0.027469   
     74. D(C   5,C   2,C   0,H  11)   -179.9547         0.027469   
     75. D(O   7,C   2,C   0,C   3)   -179.9846         0.027469   
     76. D(C   8,C   3,C   0,H  11)     -0.3716         0.024564   
     77. D(C   4,C   3,C   0,H  11)    179.9080         0.024564   
     78. D(C   4,C   3,C   0,C   2)     -0.0621         0.024564   
     79. D(C   8,C   3,C   0,C   2)    179.6582         0.024564   
     80. D(H  13,C   4,C   1,H  12)      0.0066         0.025248   
     81. D(C   1,C   4,C   3,C   0)      0.0690         0.023888   
     82. D(C   1,C   4,C   3,C   8)   -179.6506         0.023888   
     83. D(C   3,C   4,C   1,H  12)   -179.9731         0.025248   
     84. D(C   3,C   4,C   1,C   5)     -0.0286         0.025248   
     85. D(H  13,C   4,C   3,C   0)   -179.9105         0.023888   
     86. D(H  13,C   4,C   3,C   8)      0.3698         0.023888   
     87. D(H  13,C   4,C   1,C   5)    179.9511         0.025248   
     88. D(O   6,C   5,C   2,O   7)      0.0050         0.026658   
     89. D(O   6,C   5,C   2,C   0)   -179.9956         0.026658   
     90. D(C   1,C   5,C   2,C   0)      0.0251         0.026658   
     91. D(O   6,C   5,C   1,H  12)     -0.0538         0.027272   
     92. D(O   6,C   5,C   1,C   4)   -179.9971         0.027272   
     93. D(C   2,C   5,C   1,H  12)    179.9246         0.027272   
     94. D(C   2,C   5,C   1,C   4)     -0.0187         0.027272   
     95. D(C   1,C   5,C   2,O   7)   -179.9743         0.026658   
     96. D(H  14,O   6,C   5,C   2)   -179.7705         0.027023   
     97. D(H  14,O   6,C   5,C   1)      0.2084         0.027023   
     98. D(H  15,O   7,C   2,C   5)     -0.0657         0.027412   
     99. D(H  15,O   7,C   2,C   0)    179.9349         0.027412   
    100. D(H  16,C   8,C   3,C   0)    164.7169         0.011894   
    101. D(C   9,C   8,C   3,C   4)    107.8551         0.011894   
    102. D(C   9,C   8,C   3,C   0)    -71.8613         0.011894   
    103. D(H  17,C   8,C   3,C   4)   -130.5622         0.011894   
    104. D(H  17,C   8,C   3,C   0)     49.7214         0.011894   
    105. D(H  16,C   8,C   3,C   4)    -15.5667         0.011894   
    106. D(Cu 22,C   9,C   8,H  17)    100.2147         0.011292   
    107. D(Cu 22,C   9,C   8,H  16)    -15.0284         0.011292   
    108. D(Cu 22,C   9,C   8,C   3)   -138.6291         0.011292   
    109. D(H  19,C   9,C   8,H  16)    -60.6456         0.011292   
    110. D(H  19,C   9,C   8,C   3)    175.7537         0.011292   
    111. D(H  18,C   9,C   8,H  17)    -62.5015         0.011292   
    112. D(H  18,C   9,C   8,H  16)   -177.7446         0.011292   
    113. D(H  19,C   9,C   8,H  17)     54.5974         0.011292   
    114. D(H  18,C   9,C   8,C   3)     58.6547         0.011292   
    115. D(N  10,C   9,C   8,H  17)    175.0220         0.011292   
    116. D(N  10,C   9,C   8,H  16)     59.7790         0.011292   
    117. D(N  10,C   9,C   8,C   3)    -63.8217         0.011292   
    118. D(Cu 22,N  10,C   9,H  19)    -30.0858         0.017644   
    119. D(Cu 22,N  10,C   9,H  18)     85.5803         0.017644   
    120. D(H  21,N  10,C   9,Cu 22)     98.6653         0.017644   
    121. D(H  21,N  10,C   9,H  19)     68.5795         0.017644   
    122. D(H  21,N  10,C   9,H  18)   -175.7544         0.017644   
    123. D(H  21,N  10,C   9,C   8)    -52.2106         0.017644   
    124. D(H  20,N  10,C   9,Cu 22)   -146.3357         0.017644   
    125. D(Cu 22,N  10,C   9,C   8)   -150.8760         0.017644   
    126. D(H  20,N  10,C   9,H  19)   -176.4215         0.017644   
    127. D(H  20,N  10,C   9,H  18)    -60.7555         0.017644   
    128. D(H  20,N  10,C   9,C   8)     62.7883         0.017644   
    129. D(Cu 22,H  19,C   9,H  18)    -83.6854         0.126041   
    130. D(Cu 22,H  19,C   9,N  10)     33.1801         0.126041   
    131. D(Cu 22,H  19,C   9,C   8)    156.8280         0.126041   
    132. D(N  10,Cu 22,C   9,H  19)    144.0625         0.003186   
    133. D(N  10,Cu 22,C   9,H  18)   -108.6068         0.003186   
    134. D(N  10,Cu 22,C   9,C   8)     87.5947         0.003186   
    135. D(N  10,Cu 22,H  19,C   9)    -25.3075         0.006600   
    136. D(H  19,Cu 22,N  10,H  20)    118.4631         0.005940   
    137. D(H  19,Cu 22,N  10,C   9)     19.4491         0.005940   
    138. D(C   9,Cu 22,N  10,H  21)   -106.8373         0.005940   
    139. D(C   9,Cu 22,N  10,H  20)     99.0140         0.005940   
    140. D(H  19,Cu 22,C   9,H  18)    107.3306         0.003186   
    141. D(H  19,Cu 22,N  10,H  21)    -87.3882         0.005940   
    142. D(H  19,Cu 22,C   9,N  10)   -144.0625         0.003186   
    143. D(H  19,Cu 22,C   9,C   8)    -56.4678         0.003186   
    -----------------------------------------------------------------

Number of atoms                         .... 23
Number of degrees of freedom            .... 143

         *************************************************************
         *                GEOMETRY OPTIMIZATION CYCLE   1            *
         *************************************************************
---------------------------------
CARTESIAN COORDINATES (ANGSTROEM)
---------------------------------
  C     -0.074381   -1.017724   -0.365733
  C     -1.104295    1.582582   -0.145174
  C     -1.404297   -0.807838   -0.028468
  C      0.764127    0.082008   -0.598285
  C      0.237318    1.380673   -0.485702
  C     -1.918680    0.480698    0.082127
  O     -3.237740    0.612654    0.417989
  O     -2.212182   -1.885801    0.196219
  C      2.216363   -0.129253   -0.958825
  C      3.082353   -0.623390    0.210232
  N      3.177358    0.336596    1.311590
  H      0.300199   -2.034529   -0.445753
  H     -1.486399    2.594964   -0.065194
  H      0.872918    2.245792   -0.664027
  H     -3.446612    1.561874    0.452057
  H     -3.082382   -1.496456    0.413871
  H      2.639984    0.798710   -1.364264
  H      2.266265   -0.859784   -1.776551
  H      2.697246   -1.571127    0.602530
  H      4.094823   -0.820415   -0.159063
  H      2.243593    0.479729    1.700370
  H      3.467199    1.243717    0.950192
  Cu     4.764860   -0.646749    1.331403

----------------------------
CARTESIAN COORDINATES (A.U.)
----------------------------
  NO LB      ZA    FRAG     MASS         X           Y           Z
   0 C     6.0000    0    12.011   -0.140560   -1.923220   -0.691135
   1 C     6.0000    0    12.011   -2.086815    2.990647   -0.274339
   2 C     6.0000    0    12.011   -2.653737   -1.526593   -0.053797
   3 C     6.0000    0    12.011    1.443991    0.154973   -1.130595
   4 C     6.0000    0    12.011    0.448466    2.609094   -0.917844
   5 C     6.0000    0    12.011   -3.625780    0.908388    0.155198
   6 O     8.0000    0    15.999   -6.118442    1.157748    0.789885
   7 O     8.0000    0    15.999   -4.180418   -3.563647    0.370800
   8 C     6.0000    0    12.011    4.188319   -0.244253   -1.811917
   9 C     6.0000    0    12.011    5.824803   -1.178036    0.397281
  10 N     7.0000    0    14.007    6.004336    0.636074    2.478546
  11 H     1.0000    0     1.008    0.567294   -3.844703   -0.842351
  12 H     1.0000    0     1.008   -2.808887    4.903771   -0.123199
  13 H     1.0000    0     1.008    1.649576    4.243932   -1.254829
  14 H     1.0000    0     1.008   -6.513153    2.951514    0.854264
  15 H     1.0000    0     1.008   -5.824858   -2.827892    0.782103
  16 H     1.0000    0     1.008    4.988847    1.509343   -2.578085
  17 H     1.0000    0     1.008    4.282620   -1.624756   -3.357195
  18 H     1.0000    0     1.008    5.097056   -2.969000    1.138617
  19 H     1.0000    0     1.008    7.738094   -1.550360   -0.300586
  20 H     1.0000    0     1.008    4.239776    0.906556    3.213234
  21 H     1.0000    0     1.008    6.552057    2.350285    1.795603
  22 Cu   29.0000    0    63.550    9.004281   -1.222179    2.515988

--------------------------------
INTERNAL COORDINATES (ANGSTROEM)
--------------------------------
 C      0   0   0     0.000000000000     0.00000000     0.00000000
 C      1   0   0     2.805523197821     0.00000000     0.00000000
 C      1   2   0     1.387975641096    59.26918075     0.00000000
 C      1   2   3     1.402350373691    60.37607015   180.02845998
 C      2   1   3     1.398803776387    59.66750404   180.00611131
 C      2   1   3     1.388897772438    59.52236256     0.00000000
 O      6   2   1     1.367528775778   121.95227700   180.00920684
 O      3   1   2     1.365711042118   119.17143681   179.98692815
 C      4   1   2     1.511161705913   120.30129602   179.68637508
 C      9   4   1     1.536490912475   113.89539138   288.13868293
 N     10   9   4     1.464099899045   113.45675457   296.17826453
 H      1   2   3     1.086556848409   178.59078522     2.05040317
 H      2   1   3     1.085042663281   179.03158820   183.19274898
 H      5   2   1     1.088217831956   119.03442604   179.94485396
 H      7   6   2     0.972525963359   108.05584911     0.20840682
 H      8   3   1     0.977859888803   104.40472661   179.93487285
 H      9   4   1     1.097702538820   109.92603166   164.71691619
 H      9   4   1     1.097652751393   108.32896839    49.72143441
 H     10   9   4     1.095632485563   110.64113857    58.65467567
 H     10   9   4     1.095578910234   108.79763881   175.75366564
 H     11  10   9     1.021544917913   108.59311985    62.78833923
 H     11  10   9     1.018569991864   109.60310980   307.78938786
 Cu    20  10   9     1.643350089754    92.98494728   156.82803349

---------------------------
INTERNAL COORDINATES (A.U.)
---------------------------
 C      0   0   0     0.000000000000     0.00000000     0.00000000
 C      1   0   0     5.301670506245     0.00000000     0.00000000
 C      1   2   0     2.622893842226    59.26918075     0.00000000
 C      1   2   3     2.650058150079    60.37607015   180.02845998
 C      2   1   3     2.643356052466    59.66750404   180.00611131
 C      2   1   3     2.624636417920    59.52236256     0.00000000
 O      6   2   1     2.584254866476   121.95227700   180.00920684
 O      3   1   2     2.580819847675   119.17143681   179.98692815
 C      4   1   2     2.855681768244   120.30129602   179.68637508
 C      9   4   1     2.903547031836   113.89539138   288.13868293
 N     10   9   4     2.766747841898   113.45675457   296.17826453
 H      1   2   3     2.053294872430   178.59078522     2.05040317
 H      2   1   3     2.050433477222   179.03158820   183.19274898
 H      5   2   1     2.056433676445   119.03442604   179.94485396
 H      7   6   2     1.837807728877   108.05584911     0.20840682
 H      8   3   1     1.847887387184   104.40472661   179.93487285
 H      9   4   1     2.074357174879   109.92603166   164.71691619
 H      9   4   1     2.074263090278   108.32896839    49.72143441
 H     10   9   4     2.070445341142   110.64113857    58.65467567
 H     10   9   4     2.070344098443   108.79763881   175.75366564
 H     11  10   9     1.930440128355   108.59311985    62.78833923
 H     11  10   9     1.924818332854   109.60310980   307.78938786
 Cu    20  10   9     3.105481611790    92.98494728   156.82803349

---------------------
BASIS SET INFORMATION
---------------------
There are 5 groups of distinct atoms

 Group   1 Type C   : 11s6p2d1f contracted to 5s3p2d1f pattern {62111/411/11/1}
 Group   2 Type O   : 11s6p2d1f contracted to 5s3p2d1f pattern {62111/411/11/1}
 Group   3 Type N   : 11s6p2d1f contracted to 5s3p2d1f pattern {62111/411/11/1}
 Group   4 Type H   : 5s1p contracted to 3s1p pattern {311/1}
 Group   5 Type Cu  : 17s11p7d1f contracted to 6s4p4d1f pattern {842111/6311/4111/1}

Atom   0C    basis set group =>   1
Atom   1C    basis set group =>   1
Atom   2C    basis set group =>   1
Atom   3C    basis set group =>   1
Atom   4C    basis set group =>   1
Atom   5C    basis set group =>   1
Atom   6O    basis set group =>   2
Atom   7O    basis set group =>   2
Atom   8C    basis set group =>   1
Atom   9C    basis set group =>   1
Atom  10N    basis set group =>   3
Atom  11H    basis set group =>   4
Atom  12H    basis set group =>   4
Atom  13H    basis set group =>   4
Atom  14H    basis set group =>   4
Atom  15H    basis set group =>   4
Atom  16H    basis set group =>   4
Atom  17H    basis set group =>   4
Atom  18H    basis set group =>   4
Atom  19H    basis set group =>   4
Atom  20H    basis set group =>   4
Atom  21H    basis set group =>   4
Atom  22Cu   basis set group =>   5
---------------------------------
AUXILIARY/J BASIS SET INFORMATION
---------------------------------
There are 5 groups of distinct atoms

 Group   1 Type C   : 12s5p4d2f1g contracted to 6s4p3d1f1g pattern {711111/2111/211/2/1}
 Group   2 Type O   : 12s5p4d2f1g contracted to 6s4p3d1f1g pattern {711111/2111/211/2/1}
 Group   3 Type N   : 12s5p4d2f1g contracted to 6s4p3d1f1g pattern {711111/2111/211/2/1}
 Group   4 Type H   : 5s2p1d contracted to 3s1p1d pattern {311/2/1}
 Group   5 Type Cu  : 19s5p5d3f3g contracted to 8s5p4d3f3g pattern {121111111/11111/2111/111/111}

Atom   0C    basis set group =>   1
Atom   1C    basis set group =>   1
Atom   2C    basis set group =>   1
Atom   3C    basis set group =>   1
Atom   4C    basis set group =>   1
Atom   5C    basis set group =>   1
Atom   6O    basis set group =>   2
Atom   7O    basis set group =>   2
Atom   8C    basis set group =>   1
Atom   9C    basis set group =>   1
Atom  10N    basis set group =>   3
Atom  11H    basis set group =>   4
Atom  12H    basis set group =>   4
Atom  13H    basis set group =>   4
Atom  14H    basis set group =>   4
Atom  15H    basis set group =>   4
Atom  16H    basis set group =>   4
Atom  17H    basis set group =>   4
Atom  18H    basis set group =>   4
Atom  19H    basis set group =>   4
Atom  20H    basis set group =>   4
Atom  21H    basis set group =>   4
Atom  22Cu   basis set group =>   5


           ************************************************************
           *        Program running with 16 parallel MPI-processes    *
           *              working on a common directory               *
           ************************************************************
------------------------------------------------------------------------------
                           ORCA GTO INTEGRAL CALCULATION
                           -- RI-GTO INTEGRALS CHOSEN --
------------------------------------------------------------------------------
------------------------------------------------------------------------------
                   ___                                                        
                  /   \      - P O W E R E D   B Y -                         
                 /     \                                                     
                 |  |  |   _    _      __       _____    __    __             
                 |  |  |  | |  | |    /  \     |  _  \  |  |  /  |          
                  \  \/   | |  | |   /    \    | | | |  |  | /  /          
                 / \  \   | |__| |  /  /\  \   | |_| |  |  |/  /          
                |  |  |   |  __  | /  /__\  \  |    /   |      \           
                |  |  |   | |  | | |   __   |  |    \   |  |\   \          
                \     /   | |  | | |  |  |  |  | |\  \  |  | \   \       
                 \___/    |_|  |_| |__|  |__|  |_| \__\ |__|  \__/        
                                                                              
                      - O R C A' S   B I G   F R I E N D -                    
                                      &                                       
                       - I N T E G R A L  F E E D E R -                       
                                                                              
 v1 FN, 2020, v2 2021                                                         
------------------------------------------------------------------------------


Reading SHARK input file ex.SHARKINP.tmp ... ok
----------------------
SHARK INTEGRAL PACKAGE
----------------------

Number of atoms                             ...     23
Number of basis functions                   ...    452
Number of shells                            ...    180
Maximum angular momentum                    ...      3
Integral batch strategy                     ... SHARK/LIBINT Hybrid
RI-J (if used) integral strategy            ... SPLIT-RIJ (Revised 2003 algorithm where possible)
Printlevel                                  ...      1
Contraction scheme used                     ... SEGMENTED contraction
Coulomb Range Separation                    ... NOT USED
Exchange Range Separation                   ... NOT USED
Finite Nucleus Model                        ... NOT USED
Auxiliary Coulomb fitting basis             ... AVAILABLE
   # of basis functions in Aux-J            ...    751
   # of shells in Aux-J                     ...    243
   Maximum angular momentum in Aux-J        ...      4
Auxiliary J/K fitting basis                 ... NOT available
Auxiliary Correlation fitting basis         ... NOT available
Auxiliary 'external' fitting basis          ... NOT available
Integral threshold                          ...     2.500000e-11
Primitive cut-off                           ...     2.500000e-12
Primitive pair pre-selection threshold      ...     2.500000e-12

Calculating pre-screening integrals         ... done (  0.1 sec) Dimension = 180
Organizing shell pair data                  ... done (  0.5 sec)
Shell pair information
Total number of shell pairs                 ...     16290
Shell pairs after pre-screening             ...     13335
Total number of primitive shell pairs       ...     52337
Primitive shell pairs kept                  ...     29804
          la=0 lb=0:   3571 shell pairs
          la=1 lb=0:   3759 shell pairs
          la=1 lb=1:   1019 shell pairs
          la=2 lb=0:   1988 shell pairs
          la=2 lb=1:   1052 shell pairs
          la=2 lb=2:    286 shell pairs
          la=3 lb=0:    879 shell pairs
          la=3 lb=1:    472 shell pairs
          la=3 lb=2:    247 shell pairs
          la=3 lb=3:     62 shell pairs

Calculating one electron integrals          ... done (  0.0 sec)
Calculating RI/J V-Matrix + Cholesky decomp.... done (  0.0 sec)
Calculating Nuclear repulsion               ... done (  0.0 sec) ENN=    910.294345503695 Eh

SHARK setup successfully completed in   1.0 seconds

Maximum memory used throughout the entire GTOINT-calculation: 29.8 MB


           ************************************************************
           *        Program running with 16 parallel MPI-processes    *
           *              working on a common directory               *
           ************************************************************
-------------------------------------------------------------------------------
                                 ORCA SCF
-------------------------------------------------------------------------------

------------
SCF SETTINGS
------------
Hamiltonian:
 Density Functional     Method          .... DFT(GTOs)
 Exchange Functional    Exchange        .... PBE
   PBE kappa parameter   XKappa         ....  0.804000
   PBE mue parameter    XMuePBE         ....  0.219520
 Correlation Functional Correlation     .... PBE
   PBE beta parameter  CBetaPBE         ....  0.066725
 LDA part of GGA corr.  LDAOpt          .... PW91-LDA
 Gradients option       PostSCFGGA      .... off
   Density functional embedding theory  .... OFF
   NL short-range parameter             ....  6.400000
 RI-approximation to the Coulomb term is turned on
   Number of AuxJ basis functions       .... 751


General Settings:
 Integral files         IntName         .... ex
 Hartree-Fock type      HFTyp           .... UHF
 Total Charge           Charge          ....    2
 Multiplicity           Mult            ....    2
 Number of Electrons    NEL             ....  109
 Basis Dimension        Dim             ....  452
 Nuclear Repulsion      ENuc            ....    910.2943455037 Eh

Convergence Acceleration:
 DIIS                   CNVDIIS         .... on
   Start iteration      DIISMaxIt       ....    12
   Startup error        DIISStart       ....  0.200000
   # of expansion vecs  DIISMaxEq       ....     5
   Bias factor          DIISBfac        ....   1.050
   Max. coefficient     DIISMaxC        ....  10.000
 Trust-Rad. Augm. Hess. CNVTRAH         .... auto
   Auto Start mean grad. ratio tolernc. ....  1.125000
   Auto Start start iteration           ....    20
   Auto Start num. interpolation iter.  ....    10
   Max. Number of Micro iterations      ....    16
   Max. Number of Macro iterations      .... Maxiter - #DIIS iter
   Number of Davidson start vectors     ....     2
   Converg. threshold I  (grad. norm)   ....   1.000e-05
   Converg. threshold II (energy diff.) ....   1.000e-08
   Grad. Scal. Fac. for Micro threshold ....   0.100
   Minimum threshold for Micro iter.    ....   0.010
   NR start threshold (gradient norm)   ....   0.001
   Initial trust radius                 ....   0.400
   Minimum AH scaling param. (alpha)    ....   1.000
   Maximum AH scaling param. (alpha)    .... 1000.000
   Orbital update algorithm             .... Taylor
   White noise on init. David. guess    .... on
   Maximum white noise                  ....   0.010
   Quad. conv. algorithm                .... NR
 SOSCF                  CNVSOSCF        .... off
 Level Shifting         CNVShift        .... on
   Level shift para.    LevelShift      ....    0.2500
   Turn off err/grad.   ShiftErr        ....    0.0010
 Zerner damping         CNVZerner       .... off
 Static damping         CNVDamp         .... on
   Fraction old density DampFac         ....    0.7000
   Max. Damping (<1)    DampMax         ....    0.9800
   Min. Damping (>=0)   DampMin         ....    0.0000
   Turn off err/grad.   DampErr         ....    0.1000
 Fernandez-Rico         CNVRico         .... off

SCF Procedure:
 Maximum # iterations   MaxIter         ....   125
 SCF integral mode      SCFMode         .... Direct
   Integral package                     .... SHARK and LIBINT hybrid scheme
 Reset frequency        DirectResetFreq ....    20
 Integral Threshold     Thresh          ....  2.500e-11 Eh
 Primitive CutOff       TCut            ....  2.500e-12 Eh

Convergence Tolerance:
 Convergence Check Mode ConvCheckMode   .... Total+1el-Energy
 Convergence forced     ConvForced      .... 0
 Energy Change          TolE            ....  1.000e-08 Eh
 1-El. energy change                    ....  1.000e-05 Eh
 DIIS Error             TolErr          ....  5.000e-07


Diagonalization of the overlap matrix:
Smallest eigenvalue                        ... 8.840e-06
Time for diagonalization                   ...    0.065 sec
Threshold for overlap eigenvalues          ... 1.000e-08
Number of eigenvalues below threshold      ... 0
Time for construction of square roots      ...    0.035 sec
Total time needed                          ...    0.102 sec

Time for model grid setup =    0.205 sec

------------------------------
INITIAL GUESS: MODEL POTENTIAL
------------------------------
Loading Hartree-Fock densities                     ... done
Calculating cut-offs                               ... done
Initializing the effective Hamiltonian             ... done
Setting up the integral package (SHARK)            ... done
Starting the Coulomb interaction                   ... done (   0.3 sec)
Reading the grid                                   ... done
Mapping shells                                     ... done
Starting the XC term evaluation                    ... done (   0.2 sec)
  promolecular density results
     # of electrons  =    110.988079042
     EX              =   -132.631857107
     EC              =     -4.119167928
     EX+EC           =   -136.751025035
Transforming the Hamiltonian                       ... done (   0.0 sec)
Diagonalizing the Hamiltonian                      ... done (   0.1 sec)
Back transforming the eigenvectors                 ... done (   0.0 sec)
Now organizing SCF variables                       ... done
                      ------------------
                      INITIAL GUESS DONE (   0.8 sec)
                      ------------------
-------------------
DFT GRID GENERATION
-------------------

General Integration Accuracy     IntAcc      ... 4.388
Radial Grid Type                 RadialGrid  ... OptM3 with GC (2021)
Angular Grid (max. ang.)         AngularGrid ... 4 (Lebedev-302)
Angular grid pruning method      GridPruning ... 4 (adaptive)
Weight generation scheme         WeightScheme... Becke
Basis function cutoff            BFCut       ... 1.0000e-11
Integration weight cutoff        WCut        ... 1.0000e-14
Angular grids for H and He will be reduced by one unit
Partially contracted basis set               ... off
Rotationally invariant grid construction     ... off

Total number of grid points                  ...   112167
Total number of batches                      ...     1766
Average number of points per batch           ...       63
Average number of grid points per atom       ...     4877
Time for grid setup =    0.949 sec

--------------
SCF ITERATIONS
--------------
ITER       Energy         Delta-E        Max-DP      RMS-DP      [F,P]     Damp
               ***  Starting incremental Fock matrix formation  ***
  0  -2155.6309173787   0.000000000000 0.05967274  0.00055123  0.1950388 0.7000
  1  -2155.7469450728  -0.116027694139 0.04595865  0.00041155  0.0766015 0.7000
                               ***Turning on DIIS***
  2  -2155.7863175387  -0.039372465892 0.02981017  0.00061852  0.0390316 0.0000
  3  -2155.8470700889  -0.060752550185 0.05167159  0.00038757  0.0400335 0.0000
  4  -2155.8640565821  -0.016986493186 0.01335629  0.00015141  0.0144578 0.0000
  5  -2155.8663292945  -0.002272712476 0.00702673  0.00007843  0.0063520 0.0000
  6  -2155.8667197511  -0.000390456533 0.00199493  0.00002691  0.0049845 0.0000
  7  -2155.8668153346  -0.000095583494 0.00124763  0.00001496  0.0049777 0.0000
  8  -2155.8668700426  -0.000054708053 0.00055816  0.00000873  0.0020927 0.0000
  9  -2155.8668939454  -0.000023902795 0.00047560  0.00000612  0.0010024 0.0000
 10  -2155.8669080834  -0.000014137980 0.00367672  0.00006128  0.0003473 0.0000
 11  -2155.8667792769   0.000128806460 0.00006800  0.00000057  0.0068509 0.0000
 12  -2155.8667734650   0.000005811968 0.00011994  0.00000105  0.0070705 0.0000
 13  -2155.8667660378   0.000007427172 0.00008017  0.00000068  0.0071065 0.0000
 14  -2155.8667669082  -0.000000870372 0.00004831  0.00000044  0.0067211 0.0000
 15  -2155.8667677761  -0.000000867910 0.00431878  0.00004812  0.0067446 0.0000
 16  -2155.8666036365   0.000164139553 0.00171416  0.00001634  0.0183940 0.0000
 17  -2155.8668863051  -0.000282668595 0.00117982  0.00001018  0.0033935 0.0000
 18  -2155.8669203395  -0.000034034387 0.00081658  0.00000796  0.0026915 0.0000
 19  -2155.8669336336  -0.000013294102 0.00059997  0.00000579  0.0013157 0.0000
               *** Restarting incremental Fock matrix formation ***
                                   *** Resetting DIIS ***
 20  -2155.8669390649  -0.000005431340 0.00114550  0.00002017  0.0006543 0.0000
 21  -2155.8669412265  -0.000002161580 0.00052124  0.00000856  0.0007377 0.0000
 22  -2155.8669436282  -0.000002401641 0.00060086  0.00000921  0.0009271 0.0000
 23  -2155.8669388296   0.000004798555 0.00014433  0.00000181  0.0019614 0.0000
 24  -2155.8669421783  -0.000003348688 0.00009393  0.00000148  0.0011037 0.0000
 25  -2155.8669437937  -0.000001615423 0.00080747  0.00001281  0.0006133 0.0000

 WARNING: the maximum gradient error descreased on average only by a factor   1.1
          during the last 20 iterations

                      *** Initiating the TRAH-SCF procedure ***


TRAH GRID
---------

General Integration Accuracy     IntAcc      ... 3.467
Radial Grid Type                 RadialGrid  ... OptM3 with GC (2021)
Angular Grid (max. ang.)         AngularGrid ... 1 (Lebedev-50)
Angular grid pruning method      GridPruning ... 4 (adaptive)
Weight generation scheme         WeightScheme... Becke
Basis function cutoff            BFCut       ... 1.0000e-11
Integration weight cutoff        WCut        ... 1.0000e-14
Angular grids for H and He will be reduced by one unit
Partially contracted basis set               ... off
Rotationally invariant grid construction     ... off

Total number of grid points                  ...    18783
Total number of batches                      ...      306
Average number of points per batch           ...       61
Average number of grid points per atom       ...      817

 --------------------------------------------------------------------------------------------
   Iter.        energy            ||Error||_2        Shift      TRadius  Mac/Mic        Rej.
 --------------------------------------------------------------------------------------------
    0      -2155.866938944198     3.680604e-03                     0.400 (TRAH MAcro)   No
WARNING : small    HOMO - LUMO gap : (op =  beta) 0.008845
    0     dE    -2.189627e-06     2.816177e-03    -2.1896e-06      0.001 (TRAH MIcro)
    0     dE    -6.724546e-06     2.107527e-04    -6.7241e-06      0.008 (TRAH MIcro)
    1      -2155.866945517619     2.089055e-04                           (NR   MAcro)
WARNING : small    HOMO - LUMO gap : (op =  beta) 0.011189
    1     dE    -1.880482e-08     1.229306e-04                           (NR   MIcro)
    1     dE    -2.269152e-08     5.469492e-05                           (NR   MIcro)
    1     dE    -2.529032e-08     3.020099e-05                           (NR   MIcro)
    1     dE    -2.577175e-08     1.089318e-05                           (NR   MIcro)
    1     dE    -2.584249e-08     5.655615e-06                           (NR   MIcro)
    1     dE    -2.585809e-08     2.264481e-06                           (NR   MIcro)
    1     dE    -2.586126e-08     1.184788e-06                           (NR   MIcro)
    1     dE    -2.586230e-08     5.444674e-07                           (NR   MIcro)
    2      -2155.866945543499     7.001794e-07                           (NR   MAcro)
WARNING : small    HOMO - LUMO gap : (op =  beta) 0.011141
    2     dE    -1.280492e-13     5.794881e-07                           (NR   MIcro)
    3      -2155.866945543502     5.795869e-07                           (NR   MAcro)
WARNING : small    HOMO - LUMO gap : (op =  beta) 0.011141

               *****************************************************
               *                     SUCCESS                       *
               *           SCF CONVERGED AFTER  41 CYCLES          *
               *****************************************************


----------------
TOTAL SCF ENERGY
----------------

Total Energy       :        -2155.86694554 Eh          -58664.12201 eV

Components:
Nuclear Repulsion  :          910.29434550 Eh           24770.36844 eV
Electronic Energy  :        -3066.16129105 Eh          -83434.49046 eV
One Electron Energy:        -4762.72427145 Eh         -129600.31618 eV
Two Electron Energy:         1696.56298040 Eh           46165.82572 eV

Virial components:
Potential Energy   :        -4307.57319163 Eh         -117215.02564 eV
Kinetic Energy     :         2151.70624609 Eh           58550.90363 eV
Virial Ratio       :            2.00193367


DFT components:
N(Alpha)           :       55.000046343809 electrons
N(Beta)            :       54.000047038397 electrons
N(Total)           :      109.000093382205 electrons
E(X)               :     -133.483042995659 Eh       
E(C)               :       -4.060859242652 Eh       
E(XC)              :     -137.543902238312 Eh       
DFET-embed. en.    :        0.000000000000 Eh       

---------------
SCF CONVERGENCE
---------------

  Last Energy change         ...   -2.2737e-12  Tolerance :   1.0000e-08
  Last Orbital Gradient      ...    5.7959e-07  Tolerance :   1.0000e-05
  Last Orbital Rotation      ...    8.8780e-07

             **** THE GBW FILE WAS UPDATED (ex.gbw) ****
             **** DENSITY ex.scfp WAS UPDATED ****
             **** ENERGY FILE WAS UPDATED (ex.en.tmp) ****
----------------------
UHF SPIN CONTAMINATION
----------------------

Warning: in a DFT calculation there is little theoretical justification to 
         calculate <S**2> as in Hartree-Fock theory. We will do it anyways
         but you should keep in mind that the values have only limited relevance

Expectation value of <S**2>     :     0.753481
Ideal value S*(S+1) for S=0.5   :     0.750000
Deviation                       :     0.003481

             **** THE GBW FILE WAS UPDATED (ex.gbw) ****
             **** DENSITY ex.scfp WAS UPDATED ****
----------------
ORBITAL ENERGIES
----------------
                 SPIN UP ORBITALS
  NO   OCC          E(Eh)            E(eV) 
   0   1.0000    -321.836756     -8757.6234 
   1   1.0000     -38.600881     -1050.3834 
   2   1.0000     -33.892170      -922.2528 
   3   1.0000     -33.891795      -922.2426 
   4   1.0000     -33.891624      -922.2380 
   5   1.0000     -19.110844      -520.0325 
   6   1.0000     -19.101273      -519.7721 
   7   1.0000     -14.330881      -389.9631 
   8   1.0000     -10.274744      -279.5900 
   9   1.0000     -10.269718      -279.4532 
  10   1.0000     -10.252811      -278.9932 
  11   1.0000     -10.217634      -278.0360 
  12   1.0000     -10.204866      -277.6885 
  13   1.0000     -10.193104      -277.3685 
  14   1.0000     -10.192046      -277.3397 
  15   1.0000     -10.190243      -277.2906 
  16   1.0000      -4.438921      -120.7892 
  17   1.0000      -2.979046       -81.0640 
  18   1.0000      -2.973505       -80.9132 
  19   1.0000      -2.971825       -80.8675 
  20   1.0000      -1.305996       -35.5380 
  21   1.0000      -1.277374       -34.7591 
  22   1.0000      -1.175977       -32.0000 
  23   1.0000      -1.097796       -29.8725 
  24   1.0000      -1.021697       -27.8018 
  25   1.0000      -0.987293       -26.8656 
  26   1.0000      -0.971026       -26.4230 
  27   1.0000      -0.913716       -24.8635 
  28   1.0000      -0.875658       -23.8279 
  29   1.0000      -0.855332       -23.2748 
  30   1.0000      -0.811437       -22.0803 
  31   1.0000      -0.806672       -21.9507 
  32   1.0000      -0.784556       -21.3489 
  33   1.0000      -0.748292       -20.3621 
  34   1.0000      -0.742750       -20.2113 
  35   1.0000      -0.726058       -19.7570 
  36   1.0000      -0.714078       -19.4311 
  37   1.0000      -0.705513       -19.1980 
  38   1.0000      -0.696903       -18.9637 
  39   1.0000      -0.684801       -18.6344 
  40   1.0000      -0.665649       -18.1132 
  41   1.0000      -0.652115       -17.7450 
  42   1.0000      -0.641146       -17.4465 
  43   1.0000      -0.624022       -16.9805 
  44   1.0000      -0.620484       -16.8842 
  45   1.0000      -0.618862       -16.8401 
  46   1.0000      -0.610158       -16.6032 
  47   1.0000      -0.596436       -16.2299 
  48   1.0000      -0.548329       -14.9208 
  49   1.0000      -0.544532       -14.8175 
  50   1.0000      -0.542910       -14.7733 
  51   1.0000      -0.539768       -14.6878 
  52   1.0000      -0.524767       -14.2796 
  53   1.0000      -0.512069       -13.9341 
  54   1.0000      -0.501732       -13.6528 
  55   0.0000      -0.404245       -11.0001 
  56   0.0000      -0.348559        -9.4848 
  57   0.0000      -0.342075        -9.3083 
  58   0.0000      -0.286859        -7.8058 
  59   0.0000      -0.267883        -7.2895 
  60   0.0000      -0.264261        -7.1909 
  61   0.0000      -0.245159        -6.6711 
  62   0.0000      -0.238781        -6.4976 
  63   0.0000      -0.227601        -6.1933 
  64   0.0000      -0.219328        -5.9682 
  65   0.0000      -0.209216        -5.6931 
  66   0.0000      -0.200291        -5.4502 
  67   0.0000      -0.191567        -5.2128 
  68   0.0000      -0.182231        -4.9588 
  69   0.0000      -0.175703        -4.7811 
  70   0.0000      -0.166387        -4.5276 
  71   0.0000      -0.158313        -4.3079 
  72   0.0000      -0.147282        -4.0078 
  73   0.0000      -0.142222        -3.8701 
  74   0.0000      -0.134991        -3.6733 
  75   0.0000      -0.122008        -3.3200 
  76   0.0000      -0.118536        -3.2255 
  77   0.0000      -0.114448        -3.1143 
  78   0.0000      -0.110099        -2.9960 
  79   0.0000      -0.095434        -2.5969 
  80   0.0000      -0.091248        -2.4830 
  81   0.0000      -0.079647        -2.1673 
  82   0.0000      -0.069239        -1.8841 
  83   0.0000      -0.066259        -1.8030 
  84   0.0000      -0.062703        -1.7062 
  85   0.0000      -0.054967        -1.4957 
  86   0.0000      -0.044620        -1.2142 
  87   0.0000      -0.033392        -0.9086 
  88   0.0000      -0.029662        -0.8071 
  89   0.0000      -0.018688        -0.5085 
  90   0.0000      -0.013097        -0.3564 
  91   0.0000      -0.004975        -0.1354 
  92   0.0000      -0.002798        -0.0761 
  93   0.0000       0.001100         0.0299 
  94   0.0000       0.011747         0.3197 
  95   0.0000       0.016056         0.4369 
  96   0.0000       0.028190         0.7671 
  97   0.0000       0.035949         0.9782 
  98   0.0000       0.037022         1.0074 
  99   0.0000       0.043435         1.1819 
 100   0.0000       0.051949         1.4136 
 101   0.0000       0.063998         1.7415 
 102   0.0000       0.071371         1.9421 
 103   0.0000       0.075325         2.0497 
 104   0.0000       0.086638         2.3575 
 105   0.0000       0.088096         2.3972 
 106   0.0000       0.099943         2.7196 
 107   0.0000       0.104241         2.8365 
 108   0.0000       0.115239         3.1358 
 109   0.0000       0.124674         3.3925 
 110   0.0000       0.134927         3.6715 
 111   0.0000       0.138165         3.7597 
 112   0.0000       0.144978         3.9451 
 113   0.0000       0.153713         4.1827 
 114   0.0000       0.155650         4.2354 
 115   0.0000       0.171032         4.6540 
 116   0.0000       0.175903         4.7866 
 117   0.0000       0.181305         4.9336 
 118   0.0000       0.191590         5.2134 
 119   0.0000       0.198581         5.4037 
 120   0.0000       0.214486         5.8365 
 121   0.0000       0.219047         5.9606 
 122   0.0000       0.220109         5.9895 
 123   0.0000       0.222514         6.0549 
 124   0.0000       0.235659         6.4126 
 125   0.0000       0.245531         6.6812 
 126   0.0000       0.258762         7.0413 
 127   0.0000       0.267300         7.2736 
 128   0.0000       0.273640         7.4461 
 129   0.0000       0.283664         7.7189 
 130   0.0000       0.293836         7.9957 
 131   0.0000       0.295822         8.0497 
 132   0.0000       0.313113         8.5202 
 133   0.0000       0.326360         8.8807 
 134   0.0000       0.330914         9.0046 
 135   0.0000       0.343129         9.3370 
 136   0.0000       0.361922         9.8484 
 137   0.0000       0.375461        10.2168 
 138   0.0000       0.385657        10.4943 
 139   0.0000       0.395677        10.7669 
 140   0.0000       0.411701        11.2029 
 141   0.0000       0.422807        11.5052 
 142   0.0000       0.434455        11.8221 
 143   0.0000       0.449587        12.2339 
 144   0.0000       0.468884        12.7590 
 145   0.0000       0.471790        12.8381 
 146   0.0000       0.474591        12.9143 
 147   0.0000       0.489751        13.3268 
 148   0.0000       0.505134        13.7454 
 149   0.0000       0.512707        13.9515 
 150   0.0000       0.526149        14.3172 
 151   0.0000       0.535850        14.5812 
 152   0.0000       0.555519        15.1165 
 153   0.0000       0.570891        15.5347 
 154   0.0000       0.579122        15.7587 
 155   0.0000       0.586936        15.9713 
 156   0.0000       0.592379        16.1194 
 157   0.0000       0.601152        16.3582 
 158   0.0000       0.607988        16.5442 
 159   0.0000       0.631650        17.1881 
 160   0.0000       0.650342        17.6967 
 161   0.0000       0.672320        18.2948 
 162   0.0000       0.686236        18.6734 
 163   0.0000       0.698879        19.0175 
 164   0.0000       0.708476        19.2786 
 165   0.0000       0.720802        19.6140 
 166   0.0000       0.735008        20.0006 
 167   0.0000       0.751136        20.4394 
 168   0.0000       0.760570        20.6962 
 169   0.0000       0.776737        21.1361 
 170   0.0000       0.798340        21.7239 
 171   0.0000       0.806003        21.9325 
 172   0.0000       0.834341        22.7036 
 173   0.0000       0.838892        22.8274 
 174   0.0000       0.863016        23.4839 
 175   0.0000       0.872349        23.7378 
 176   0.0000       0.884465        24.0675 
 177   0.0000       0.899787        24.4845 
 178   0.0000       0.911555        24.8047 
 179   0.0000       0.918540        24.9947 
 180   0.0000       0.943132        25.6639 
 181   0.0000       0.944961        25.7137 
 182   0.0000       0.966577        26.3019 
 183   0.0000       0.985292        26.8112 
 184   0.0000       0.996705        27.1217 
 185   0.0000       0.998845        27.1799 
 186   0.0000       1.006202        27.3801 
 187   0.0000       1.024301        27.8726 
 188   0.0000       1.036846        28.2140 
 189   0.0000       1.056827        28.7577 
 190   0.0000       1.057706        28.7816 
 191   0.0000       1.087319        29.5875 
 192   0.0000       1.101176        29.9645 
 193   0.0000       1.128013        30.6948 
 194   0.0000       1.135814        30.9071 
 195   0.0000       1.157917        31.5085 
 196   0.0000       1.163355        31.6565 
 197   0.0000       1.184116        32.2214 
 198   0.0000       1.207666        32.8623 
 199   0.0000       1.215550        33.0768 
 200   0.0000       1.240395        33.7529 
 201   0.0000       1.248566        33.9752 
 202   0.0000       1.261305        34.3219 
 203   0.0000       1.280486        34.8438 
 204   0.0000       1.299045        35.3488 
 205   0.0000       1.304829        35.5062 
 206   0.0000       1.311900        35.6986 
 207   0.0000       1.322077        35.9755 
 208   0.0000       1.329317        36.1725 
 209   0.0000       1.342150        36.5217 
 210   0.0000       1.356716        36.9181 
 211   0.0000       1.370281        37.2873 
 212   0.0000       1.382917        37.6311 
 213   0.0000       1.398722        38.0612 
 214   0.0000       1.403744        38.1978 
 215   0.0000       1.433153        38.9981 
 216   0.0000       1.458210        39.6799 
 217   0.0000       1.475681        40.1553 
 218   0.0000       1.491912        40.5970 
 219   0.0000       1.493182        40.6315 
 220   0.0000       1.506843        41.0033 
 221   0.0000       1.516043        41.2536 
 222   0.0000       1.525396        41.5081 
 223   0.0000       1.545095        42.0442 
 224   0.0000       1.546852        42.0920 
 225   0.0000       1.574818        42.8530 
 226   0.0000       1.579041        42.9679 
 227   0.0000       1.594318        43.3836 
 228   0.0000       1.611582        43.8534 
 229   0.0000       1.630902        44.3791 
 230   0.0000       1.646802        44.8118 
 231   0.0000       1.660239        45.1774 
 232   0.0000       1.661486        45.2113 
 233   0.0000       1.694221        46.1021 
 234   0.0000       1.718970        46.7756 
 235   0.0000       1.736846        47.2620 
 236   0.0000       1.752910        47.6991 
 237   0.0000       1.757768        47.8313 
 238   0.0000       1.767507        48.0963 
 239   0.0000       1.771382        48.2017 
 240   0.0000       1.787982        48.6535 
 241   0.0000       1.795517        48.8585 
 242   0.0000       1.802554        49.0500 
 243   0.0000       1.809496        49.2389 
 244   0.0000       1.840539        50.0836 
 245   0.0000       1.854588        50.4659 
 246   0.0000       1.884326        51.2751 
 247   0.0000       1.891960        51.4828 
 248   0.0000       1.925582        52.3977 
 249   0.0000       1.934251        52.6336 
 250   0.0000       1.950224        53.0683 
 251   0.0000       1.966988        53.5245 
 252   0.0000       1.980609        53.8951 
 253   0.0000       2.031631        55.2835 
 254   0.0000       2.042156        55.5699 
 255   0.0000       2.061918        56.1076 
 256   0.0000       2.066657        56.2366 
 257   0.0000       2.079233        56.5788 
 258   0.0000       2.091918        56.9240 
 259   0.0000       2.103245        57.2322 
 260   0.0000       2.112376        57.4807 
 261   0.0000       2.117305        57.6148 
 262   0.0000       2.125827        57.8467 
 263   0.0000       2.158456        58.7346 
 264   0.0000       2.168873        59.0180 
 265   0.0000       2.201782        59.9135 
 266   0.0000       2.218345        60.3642 
 267   0.0000       2.233389        60.7736 
 268   0.0000       2.238097        60.9017 
 269   0.0000       2.263321        61.5881 
 270   0.0000       2.268969        61.7418 
 271   0.0000       2.277276        61.9678 
 272   0.0000       2.288943        62.2853 
 273   0.0000       2.301083        62.6157 
 274   0.0000       2.304158        62.6993 
 275   0.0000       2.336621        63.5827 
 276   0.0000       2.355754        64.1033 
 277   0.0000       2.358408        64.1755 
 278   0.0000       2.363032        64.3014 
 279   0.0000       2.372282        64.5531 
 280   0.0000       2.404467        65.4289 
 281   0.0000       2.406269        65.4779 
 282   0.0000       2.425915        66.0125 
 283   0.0000       2.428319        66.0779 
 284   0.0000       2.438838        66.3641 
 285   0.0000       2.453408        66.7606 
 286   0.0000       2.481471        67.5243 
 287   0.0000       2.489457        67.7416 
 288   0.0000       2.495685        67.9110 
 289   0.0000       2.509240        68.2799 
 290   0.0000       2.524596        68.6978 
 291   0.0000       2.537641        69.0527 
 292   0.0000       2.543562        69.2138 
 293   0.0000       2.567282        69.8593 
 294   0.0000       2.583722        70.3066 
 295   0.0000       2.593106        70.5620 
 296   0.0000       2.606270        70.9202 
 297   0.0000       2.630808        71.5879 
 298   0.0000       2.637707        71.7757 
 299   0.0000       2.666128        72.5490 
 300   0.0000       2.670311        72.6628 
 301   0.0000       2.677968        72.8712 
 302   0.0000       2.688804        73.1661 
 303   0.0000       2.696172        73.3666 
 304   0.0000       2.716373        73.9163 
 305   0.0000       2.744229        74.6743 
 306   0.0000       2.757297        75.0299 
 307   0.0000       2.770059        75.3771 
 308   0.0000       2.779072        75.6224 
 309   0.0000       2.792013        75.9745 
 310   0.0000       2.809102        76.4396 
 311   0.0000       2.817074        76.6565 
 312   0.0000       2.820588        76.7521 
 313   0.0000       2.837408        77.2098 
 314   0.0000       2.846108        77.4465 
 315   0.0000       2.869912        78.0943 
 316   0.0000       2.882486        78.4364 
 317   0.0000       2.893088        78.7249 
 318   0.0000       2.903077        78.9967 
 319   0.0000       2.931292        79.7645 
 320   0.0000       2.948337        80.2283 
 321   0.0000       2.956079        80.4390 
 322   0.0000       2.963153        80.6315 
 323   0.0000       2.967422        80.7477 
 324   0.0000       2.988160        81.3120 
 325   0.0000       3.007933        81.8500 
 326   0.0000       3.020811        82.2004 
 327   0.0000       3.021736        82.2256 
 328   0.0000       3.026460        82.3542 
 329   0.0000       3.052624        83.0661 
 330   0.0000       3.061669        83.3122 
 331   0.0000       3.073481        83.6337 
 332   0.0000       3.091865        84.1339 
 333   0.0000       3.102935        84.4352 
 334   0.0000       3.110456        84.6398 
 335   0.0000       3.124270        85.0157 
 336   0.0000       3.137437        85.3740 
 337   0.0000       3.169118        86.2361 
 338   0.0000       3.173925        86.3669 
 339   0.0000       3.197041        86.9959 
 340   0.0000       3.221580        87.6636 
 341   0.0000       3.229815        87.8877 
 342   0.0000       3.246252        88.3350 
 343   0.0000       3.260210        88.7148 
 344   0.0000       3.290475        89.5384 
 345   0.0000       3.306871        89.9845 
 346   0.0000       3.323870        90.4471 
 347   0.0000       3.336994        90.8042 
 348   0.0000       3.350644        91.1756 
 349   0.0000       3.379541        91.9620 
 350   0.0000       3.391314        92.2823 
 351   0.0000       3.442645        93.6791 
 352   0.0000       3.456443        94.0546 
 353   0.0000       3.482401        94.7609 
 354   0.0000       3.498198        95.1908 
 355   0.0000       3.501598        95.2833 
 356   0.0000       3.531192        96.0886 
 357   0.0000       3.543113        96.4130 
 358   0.0000       3.561060        96.9014 
 359   0.0000       3.581787        97.4654 
 360   0.0000       3.613213        98.3205 
 361   0.0000       3.637268        98.9751 
 362   0.0000       3.649248        99.3011 
 363   0.0000       3.679509       100.1245 
 364   0.0000       3.716113       101.1206 
 365   0.0000       3.727666       101.4350 
 366   0.0000       3.763269       102.4037 
 367   0.0000       3.780015       102.8594 
 368   0.0000       3.795322       103.2759 
 369   0.0000       3.805114       103.5424 
 370   0.0000       3.812725       103.7495 
 371   0.0000       3.822246       104.0086 
 372   0.0000       3.838658       104.4552 
 373   0.0000       3.882909       105.6593 
 374   0.0000       3.908760       106.3628 
 375   0.0000       3.926438       106.8438 
 376   0.0000       3.945561       107.3642 
 377   0.0000       3.997947       108.7897 
 378   0.0000       4.026449       109.5653 
 379   0.0000       4.037334       109.8614 
 380   0.0000       4.057270       110.4039 
 381   0.0000       4.063047       110.5611 
 382   0.0000       4.121256       112.1451 
 383   0.0000       4.159541       113.1869 
 384   0.0000       4.195970       114.1781 
 385   0.0000       4.224688       114.9596 
[...]
      dx2y2   :     0.023498
      dxy     :     0.021785
      f0      :     0.000674  f :     0.005192
      f+1     :     0.000398
      f-1     :     0.000330
      f+2     :     0.000371
      f-2     :     0.001026
      f+3     :     0.001531
      f-3     :     0.000861
  8 C s       :     2.772280  s :     2.772280
      pz      :     1.012939  p :     3.025297
      px      :     0.983063
      py      :     1.029295
      dz2     :     0.055023  d :     0.363463
      dxz     :     0.082958
      dyz     :     0.069041
      dx2y2   :     0.098816
      dxy     :     0.057625
      f0      :     0.004419  f :     0.036481
      f+1     :     0.007045
      f-1     :     0.003247
      f+2     :     0.005526
      f-2     :     0.004682
      f+3     :     0.004577
      f-3     :     0.006984
  9 C s       :     2.801122  s :     2.801122
      pz      :     0.974323  p :     2.974921
      px      :     1.048626
      py      :     0.951972
      dz2     :     0.076899  d :     0.429986
      dxz     :     0.090144
      dyz     :     0.115193
      dx2y2   :     0.090088
      dxy     :     0.057662
      f0      :     0.009134  f :     0.047574
      f+1     :     0.005095
      f-1     :     0.008004
      f+2     :     0.007768
      f-2     :     0.007138
      f+3     :     0.005641
      f-3     :     0.004795
 10 N s       :     3.040149  s :     3.040149
      pz      :     1.231777  p :     3.817629
      px      :     1.228749
      py      :     1.357103
      dz2     :     0.024982  d :     0.159515
      dxz     :     0.043741
      dyz     :     0.034351
      dx2y2   :     0.029396
      dxy     :     0.027044
      f0      :     0.001439  f :     0.010269
      f+1     :     0.000830
      f-1     :     0.001951
      f+2     :     0.001503
      f-2     :     0.001743
      f+3     :     0.001307
      f-3     :     0.001497
 11 H s       :     0.770622  s :     0.770622
      pz      :     0.018702  p :     0.060414
      px      :     0.012318
      py      :     0.029395
 12 H s       :     0.753898  s :     0.753898
      pz      :     0.016576  p :     0.061211
      px      :     0.012536
      py      :     0.032099
 13 H s       :     0.767464  s :     0.767464
      pz      :     0.012301  p :     0.060249
      px      :     0.021619
      py      :     0.026330
 14 H s       :     0.619171  s :     0.619171
      pz      :     0.035279  p :     0.141427
      px      :     0.038107
      py      :     0.068041
 15 H s       :     0.620971  s :     0.620971
      pz      :     0.044379  p :     0.142616
      px      :     0.035068
      py      :     0.063169
 16 H s       :     0.744070  s :     0.744070
      pz      :     0.025783  p :     0.059725
      px      :     0.011761
      py      :     0.022181
 17 H s       :     0.777317  s :     0.777317
      pz      :     0.016103  p :     0.059113
      px      :     0.011527
      py      :     0.031483
 18 H s       :     0.775697  s :     0.775697
      pz      :     0.018191  p :     0.061002
      px      :     0.030977
      py      :     0.011834
 19 H s       :     0.787622  s :     0.787622
      pz      :     0.016870  p :     0.061470
      px      :     0.014545
      py      :     0.030055
 20 H s       :     0.694284  s :     0.694284
      pz      :     0.028233  p :     0.103089
      px      :     0.049041
      py      :     0.025816
 21 H s       :     0.682605  s :     0.682605
      pz      :     0.039522  p :     0.102871
      px      :     0.035190
      py      :     0.028160
 22 Cus       :     6.365806  s :     6.365806
      pz      :     4.017922  p :    12.106449
      px      :     4.028399
      py      :     4.060129
      dz2     :     1.995033  d :     9.998739
      dxz     :     2.007131
      dyz     :     2.004513
      dx2y2   :     2.007016
      dxy     :     1.985045
      f0      :     0.000014  f :     0.000125
      f+1     :     0.000006
      f-1     :     0.000017
      f+2     :     0.000015
      f-2     :     0.000021
      f+3     :     0.000035
      f-3     :     0.000017

SPIN
  0 C s       :    -0.001770  s :    -0.001770
      pz      :    -0.027828  p :    -0.039290
      px      :    -0.004628
      py      :    -0.006834
      dz2     :     0.000735  d :     0.030482
      dxz     :     0.020637
      dyz     :     0.002712
      dx2y2   :     0.003170
      dxy     :     0.003228
      f0      :     0.000199  f :     0.004148
      f+1     :     0.001217
      f-1     :     0.000161
      f+2     :     0.000582
      f-2     :     0.000964
      f+3     :     0.000313
      f-3     :     0.000712
  1 C s       :    -0.000554  s :    -0.000554
      pz      :     0.006914  p :     0.004577
      px      :    -0.001900
      py      :    -0.000437
      dz2     :     0.000331  d :     0.023664
      dxz     :     0.015902
      dyz     :     0.003102
      dx2y2   :     0.002326
      dxy     :     0.002004
      f0      :     0.000099  f :     0.003216
      f+1     :     0.000978
      f-1     :     0.000161
      f+2     :     0.000472
      f-2     :     0.000857
      f+3     :     0.000201
      f-3     :     0.000448
  2 C s       :     0.003139  s :     0.003139
      pz      :     0.119105  p :     0.146281
      px      :     0.004772
      py      :     0.022404
      dz2     :     0.006883  d :     0.020944
      dxz     :    -0.000080
      dyz     :     0.010296
      dx2y2   :     0.004065
      dxy     :    -0.000221
      f0      :     0.000391  f :     0.003039
      f+1     :     0.000011
      f-1     :     0.000168
      f+2     :     0.000233
      f-2     :     0.001345
      f+3     :     0.000935
      f-3     :    -0.000043
  3 C s       :     0.003942  s :     0.003942
      pz      :     0.120333  p :     0.154940
      px      :     0.009245
      py      :     0.025362
      dz2     :     0.003629  d :     0.003905
      dxz     :    -0.001270
      dyz     :     0.001025
      dx2y2   :     0.000166
      dxy     :     0.000355
      f0      :    -0.000198  f :    -0.000075
      f+1     :    -0.000100
      f-1     :     0.000017
      f+2     :     0.000165
      f-2     :    -0.000091
      f+3     :     0.000100
      f-3     :     0.000032
  4 C s       :     0.001713  s :     0.001713
      pz      :     0.074429  p :     0.089089
      px      :     0.004068
      py      :     0.010592
      dz2     :     0.005152  d :     0.015195
      dxz     :     0.005197
      dyz     :     0.002253
      dx2y2   :     0.000223
      dxy     :     0.002370
      f0      :    -0.000065  f :     0.001201
      f+1     :    -0.000121
      f-1     :     0.000582
      f+2     :     0.000460
      f-2     :     0.000044
      f+3     :     0.000196
      f-3     :     0.000105
  5 C s       :     0.003227  s :     0.003227
      pz      :     0.131493  p :     0.160175
      px      :     0.004231
      py      :     0.024450
      dz2     :     0.008146  d :     0.030811
      dxz     :     0.015631
      dyz     :     0.001535
      dx2y2   :     0.000526
      dxy     :     0.004974
      f0      :     0.000139  f :     0.003839
      f+1     :     0.000629
      f-1     :     0.000255
      f+2     :     0.001894
      f-2     :    -0.000127
      f+3     :     0.000165
      f-3     :     0.000885
  6 O s       :     0.002557  s :     0.002557
      pz      :     0.127707  p :     0.159094
      px      :     0.005131
      py      :     0.026255
      dz2     :     0.000619  d :     0.005498
      dxz     :     0.004053
      dyz     :     0.000007
      dx2y2   :     0.000110
      dxy     :     0.000709
      f0      :     0.000045  f :     0.000381
      f+1     :     0.000126
      f-1     :     0.000003
      f+2     :     0.000154
      f-2     :    -0.000008
      f+3     :    -0.000008
      f-3     :     0.000068
  7 O s       :     0.001773  s :     0.001773
      pz      :     0.088679  p :     0.111804
      px      :     0.003013
      py      :     0.020112
      dz2     :     0.000424  d :     0.004936
      dxz     :     0.002162
      dyz     :     0.001519
      dx2y2   :     0.000675
      dxy     :     0.000157
      f0      :     0.000072  f :     0.000349
      f+1     :     0.000013
      f-1     :     0.000036
      f+2     :     0.000002
      f-2     :     0.000160
      f+3     :     0.000062
      f-3     :     0.000005
  8 C s       :    -0.000625  s :    -0.000625
      pz      :     0.003287  p :     0.001997
      px      :    -0.002512
      py      :     0.001222
      dz2     :     0.003725  d :     0.017836
      dxz     :     0.009216
      dyz     :     0.001919
      dx2y2   :     0.001341
      dxy     :     0.001634
      f0      :     0.000058  f :     0.001826
      f+1     :     0.000786
      f-1     :     0.000139
      f+2     :     0.000356
      f-2     :     0.000035
      f+3     :     0.000054
      f-3     :     0.000398
  9 C s       :     0.001819  s :     0.001819
      pz      :     0.001243  p :     0.005566
      px      :     0.003985
      py      :     0.000338
      dz2     :    -0.000132  d :     0.000139
      dxz     :    -0.000027
      dyz     :     0.000233
      dx2y2   :     0.000012
      dxy     :     0.000052
      f0      :     0.000025  f :     0.000035
      f+1     :    -0.000012
      f-1     :    -0.000003
      f+2     :    -0.000002
      f-2     :     0.000008
      f+3     :     0.000004
      f-3     :     0.000014
 10 N s       :    -0.000017  s :    -0.000017
      pz      :     0.001002  p :     0.001028
      px      :     0.000053
      py      :    -0.000027
      dz2     :     0.000135  d :     0.000345
      dxz     :     0.000185
      dyz     :     0.000008
      dx2y2   :    -0.000012
      dxy     :     0.000030
      f0      :    -0.000000  f :     0.000020
      f+1     :     0.000002
      f-1     :     0.000004
      f+2     :     0.000001
      f-2     :     0.000010
      f+3     :     0.000002
      f-3     :     0.000002
 11 H s       :     0.000556  s :     0.000556
      pz      :    -0.000618  p :    -0.000963
      px      :    -0.000112
      py      :    -0.000233
 12 H s       :    -0.000533  s :    -0.000533
      pz      :     0.000079  p :     0.000047
      px      :    -0.000057
      py      :     0.000025
 13 H s       :    -0.002320  s :    -0.002320
      pz      :     0.001531  p :     0.002055
      px      :     0.000165
      py      :     0.000358
 14 H s       :    -0.003083  s :    -0.003083
      pz      :     0.003796  p :     0.004996
      px      :     0.000250
      py      :     0.000950
 15 H s       :    -0.002305  s :    -0.002305
      pz      :     0.002662  p :     0.003543
      px      :     0.000054
      py      :     0.000827
 16 H s       :     0.013428  s :     0.013428
      pz      :    -0.000147  p :    -0.000161
      px      :    -0.000029
      py      :     0.000016
 17 H s       :     0.000460  s :     0.000460
      pz      :     0.000115  p :     0.000045
      px      :    -0.000066
      py      :    -0.000003
 18 H s       :     0.000274  s :     0.000274
      pz      :     0.000016  p :     0.000079
      px      :     0.000061
      py      :     0.000003
 19 H s       :    -0.000011  s :    -0.000011
      pz      :     0.000089  p :     0.000131
      px      :     0.000000
      py      :     0.000042
 20 H s       :     0.000384  s :     0.000384
      pz      :     0.000007  p :     0.000126
      px      :     0.000120
      py      :    -0.000002
 21 H s       :     0.000210  s :     0.000210
      pz      :     0.000024  p :     0.000055
      px      :     0.000019
      py      :     0.000012
 22 Cus       :     0.000006  s :     0.000006
      pz      :    -0.000005  p :     0.000026
      px      :     0.000015
      py      :     0.000016
      dz2     :     0.000439  d :     0.000758
      dxz     :     0.000025
      dyz     :     0.000016
      dx2y2   :     0.000252
      dxy     :     0.000025
      f0      :    -0.000000  f :     0.000000
      f+1     :     0.000000
      f-1     :     0.000000
      f+2     :    -0.000000
      f-2     :    -0.000000
      f+3     :     0.000000
      f-3     :     0.000000


                      *****************************
                      * MAYER POPULATION ANALYSIS *
                      *****************************

  NA   - Mulliken gross atomic population
  ZA   - Total nuclear charge
  QA   - Mulliken gross atomic charge
  VA   - Mayer's total valence
  BVA  - Mayer's bonded valence
  FA   - Mayer's free valence

  ATOM       NA         ZA         QA         VA         BVA        FA
  0 C      6.2000     6.0000    -0.2000     3.9105     3.9077     0.0027
  1 C      6.1426     6.0000    -0.1426     3.9822     3.9814     0.0008
  2 C      5.7425     6.0000     0.2575     3.9397     3.9008     0.0389
  3 C      5.8760     6.0000     0.1240     3.7861     3.7470     0.0390
  4 C      6.1403     6.0000    -0.1403     3.9328     3.9204     0.0125
  5 C      5.8253     6.0000     0.1747     4.1445     4.0977     0.0468
  6 O      8.1724     8.0000    -0.1724     2.4315     2.4013     0.0302
  7 O      8.2809     8.0000    -0.2809     2.3141     2.2993     0.0148
  8 C      6.2210     6.0000    -0.2210     3.8668     3.8665     0.0003
  9 C      6.1390     6.0000    -0.1390     3.7816     3.7815     0.0001
 10 N      7.4124     7.0000    -0.4124     3.4203     3.4203     0.0000
 11 H      0.8395     1.0000     0.1605     0.9765     0.9765     0.0000
 12 H      0.8017     1.0000     0.1983     0.9611     0.9611     0.0000
 13 H      0.8290     1.0000     0.1710     0.9685     0.9685     0.0000
 14 H      0.6266     1.0000     0.3734     0.8795     0.8795     0.0000
 15 H      0.6291     1.0000     0.3709     0.8811     0.8811     0.0000
 16 H      0.8003     1.0000     0.1997     0.9559     0.9555     0.0004
 17 H      0.8570     1.0000     0.1430     0.9839     0.9839     0.0000
 18 H      0.8080     1.0000     0.1920     0.9706     0.9706     0.0000
 19 H      0.8203     1.0000     0.1797     0.9640     0.9640     0.0000
 20 H      0.7203     1.0000     0.2797     0.9284     0.9284     0.0000
 21 H      0.6961     1.0000     0.3039     0.9106     0.9106     0.0000
 22 Cu    28.4197    29.0000     0.5803     0.8352     0.8352     0.0000

  Mayer bond orders larger than 0.100000
B(  0-C ,  2-C ) :   1.3723 B(  0-C ,  3-C ) :   1.4310 B(  0-C , 11-H ) :   0.8874 
B(  1-C ,  4-C ) :   1.5854 B(  1-C ,  5-C ) :   1.2922 B(  1-C , 12-H ) :   0.9287 
B(  2-C ,  5-C ) :   1.1108 B(  2-C ,  7-O ) :   1.2661 B(  3-C ,  4-C ) :   1.1551 
B(  3-C ,  8-C ) :   0.9348 B(  4-C , 13-H ) :   0.9355 B(  5-C ,  6-O ) :   1.4548 
B(  6-O , 14-H ) :   0.8169 B(  7-O , 15-H ) :   0.8338 B(  8-C ,  9-C ) :   0.9879 
B(  8-C , 16-H ) :   0.8934 B(  8-C , 17-H ) :   0.9700 B(  9-C , 10-N ) :   0.8369 
B(  9-C , 18-H ) :   0.9519 B(  9-C , 19-H ) :   0.9352 B( 10-N , 20-H ) :   0.8973 
B( 10-N , 21-H ) :   0.8895 B( 10-N , 22-Cu) :   0.7620 

-------
TIMINGS
-------

Total SCF time: 0 days 0 hours 0 min 23 sec 

Total time                  ....      23.576 sec
Sum of individual times     ....      21.997 sec  ( 93.3%)

Fock matrix formation       ....      14.866 sec  ( 63.1%)
  Split-RI-J                ....       4.215 sec  ( 28.3% of F)
  XC integration            ....      10.070 sec  ( 67.7% of F)
    Basis function eval.    ....       1.229 sec  ( 12.2% of XC)
    Density eval.           ....       3.703 sec  ( 36.8% of XC)
    XC-Functional eval.     ....       0.125 sec  (  1.2% of XC)
    XC-Potential eval.      ....       2.070 sec  ( 20.6% of XC)
Diagonalization             ....       3.002 sec  ( 12.7%)
Density matrix formation    ....       0.122 sec  (  0.5%)
Population analysis         ....       0.284 sec  (  1.2%)
Initial guess               ....       0.465 sec  (  2.0%)
Orbital Transformation      ....       0.000 sec  (  0.0%)
Orbital Orthonormalization  ....       0.389 sec  (  1.6%)
DIIS solution               ....       1.988 sec  (  8.4%)
Grid generation             ....       1.271 sec  (  5.4%)

Maximum memory used throughout the entire SCF-calculation: 58.2 MB


-------------------------------------------------------------------------------
                          DFT DISPERSION CORRECTION                            
                                                                               
                              DFTD3 V3.1  Rev 1                                
                          USING Becke-Johnson damping                          
-------------------------------------------------------------------------------
The PBE functional is recognized
Active option DFTDOPT                   ...         4   

molecular C6(AA) [au] = 6555.778518 


            DFT-D V3
 parameters
 s6 scaling factor         :     1.0000 
 a1 scaling factor         :     0.4289 
 s8 scaling factor         :     0.7875 
 a2 scaling factor         :     4.4407 
 ad hoc parameters k1-k3   :    16.0000     1.3333    -4.0000 

 Edisp/kcal,au: -16.125673941841  -0.025697894435 
 E6   /kcal   : -11.259185044 
 E8   /kcal   :  -4.866488898 
 % E8         :  30.178514803 

-------------------------   ----------------
Dispersion correction           -0.025697894
-------------------------   ----------------


-------------------------   --------------------
FINAL SINGLE POINT ENERGY     -2155.953262119102
-------------------------   --------------------

                                *** OPTIMIZATION RUN DONE ***

                            ***************************************
                            *     ORCA property calculations      *
                            ***************************************

                                    ---------------------
                                    Active property flags
                                    ---------------------
   (+) Dipole Moment


------------------------------------------------------------------------------
                       ORCA ELECTRIC PROPERTIES CALCULATION
------------------------------------------------------------------------------

Dipole Moment Calculation                       ... on
Quadrupole Moment Calculation                   ... off
Polarizability Calculation                      ... off
GBWName                                         ... ex_job5.gbw
Electron density                                ... ex_job5.scfp
The origin for moment calculation is the CENTER OF MASS  = ( 2.235688, -1.350247  0.227616)

-------------
DIPOLE MOMENT
-------------
                                X             Y             Z
Electronic contribution:     18.10397     -16.89282       3.41666
Nuclear contribution   :    -17.70186      16.21059      -3.36962
                        -----------------------------------------
Total Dipole Moment    :      0.40210      -0.68223       0.04703
                        -----------------------------------------
Magnitude (a.u.)       :      0.79331
Magnitude (Debye)      :      2.01643



--------------------
Rotational spectrum 
--------------------
 
Rotational constants in cm-1:     0.052887     0.008732     0.007965 
Rotational constants in MHz :  1585.499757   261.788333   238.793746 

 Dipole components along the rotational axes: 
x,y,z [a.u.] :    -0.597801    -0.515505     0.078931 
x,y,z [Debye]:    -1.519488    -1.310309     0.200627 

 

Timings for individual modules:

Sum of individual times         ...      509.060 sec (=   8.484 min)
GTO integral calculation        ...       22.948 sec (=   0.382 min)   4.5 %
SCF iterations                  ...      383.741 sec (=   6.396 min)  75.4 %
SCF Gradient evaluation         ...      101.417 sec (=   1.690 min)  19.9 %
Geometry relaxation             ...        0.953 sec (=   0.016 min)   0.2 %



                             ****ORCA TERMINATED NORMALLY****
TOTAL RUN TIME: 0 days 0 hours 54 minutes 49 seconds 566 msec
