
                                 *****************
                                 * O   R   C   A *
                                 *****************

                                            #,                                       
                                            ###                                      
                                            ####                                     
                                            #####                                    
                                            ######                                   
                                           ########,                                 
                                     ,,################,,,,,                         
                               ,,#################################,,                 
                          ,,##########################################,,             
                       ,#########################################, ''#####,          
                    ,#############################################,,   '####,        
                  ,##################################################,,,,####,       
                ,###########''''           ''''###############################       
              ,#####''   ,,,,##########,,,,          '''####'''          '####       
            ,##' ,,,,###########################,,,                        '##       
           ' ,,###''''                  '''############,,,                           
         ,,##''                                '''############,,,,        ,,,,,,###''
      ,#''                                            '''#######################'''  
     '                                                          ''''####''''         
             ,#######,   #######,   ,#######,      ##                                
            ,#'     '#,  ##    ##  ,#'     '#,    #''#        ######   ,####,        
            ##       ##  ##   ,#'  ##            #'  '#       #        #'  '#        
            ##       ##  #######   ##           ,######,      #####,   #    #        
            '#,     ,#'  ##    ##  '#,     ,#' ,#      #,         ##   #,  ,#        
             '#######'   ##     ##  '#######'  #'      '#     #####' # '####'        



                  #######################################################
                  #                        -***-                        #
                  #          Department of theory and spectroscopy      #
                  #    Directorship and core code : Frank Neese         #
                  #        Max Planck Institute fuer Kohlenforschung    #
                  #                Kaiser Wilhelm Platz 1               #
                  #                 D-45470 Muelheim/Ruhr               #
                  #                      Germany                        #
                  #                                                     #
                  #                  All rights reserved                #
                  #                        -***-                        #
                  #######################################################


                         Program Version 5.0.2 -  RELEASE  -


 With contributions from (in alphabetic order):
   Daniel Aravena         : Magnetic Suceptibility
   Michael Atanasov       : Ab Initio Ligand Field Theory (pilot matlab implementation)
   Alexander A. Auer      : GIAO ZORA, VPT2 properties, NMR spectrum
   Ute Becker             : Parallelization
   Giovanni Bistoni       : ED, misc. LED, open-shell LED, HFLD
   Martin Brehm           : Molecular dynamics
   Dmytro Bykov           : SCF Hessian
   Vijay G. Chilkuri      : MRCI spin determinant printing, contributions to CSF-ICE
   Dipayan Datta          : RHF DLPNO-CCSD density
   Achintya Kumar Dutta   : EOM-CC, STEOM-CC
   Dmitry Ganyushin       : Spin-Orbit,Spin-Spin,Magnetic field MRCI
   Miquel Garcia          : C-PCM and meta-GGA Hessian, CC/C-PCM, Gaussian charge scheme
   Yang Guo               : DLPNO-NEVPT2, F12-NEVPT2, CIM, IAO-localization
   Andreas Hansen         : Spin unrestricted coupled pair/coupled cluster methods
   Benjamin Helmich-Paris : MC-RPA, TRAH-SCF, COSX integrals
   Lee Huntington         : MR-EOM, pCC
   Robert Izsak           : Overlap fitted RIJCOSX, COSX-SCS-MP3, EOM
   Marcus Kettner         : VPT2
   Christian Kollmar      : KDIIS, OOCD, Brueckner-CCSD(T), CCSD density, CASPT2, CASPT2-K
   Simone Kossmann        : Meta GGA functionals, TD-DFT gradient, OOMP2, MP2 Hessian
   Martin Krupicka        : Initial AUTO-CI
   Lucas Lang             : DCDCAS
   Marvin Lechner         : AUTO-CI (C++ implementation), FIC-MRCC
   Dagmar Lenk            : GEPOL surface, SMD
   Dimitrios Liakos       : Extrapolation schemes; Compound Job, initial MDCI parallelization
   Dimitrios Manganas     : Further ROCIS development; embedding schemes
   Dimitrios Pantazis     : SARC Basis sets
   Anastasios Papadopoulos: AUTO-CI, single reference methods and gradients
   Taras Petrenko         : DFT Hessian,TD-DFT gradient, ASA, ECA, R-Raman, ABS, FL, XAS/XES, NRVS
   Peter Pinski           : DLPNO-MP2, DLPNO-MP2 Gradient
   Christoph Reimann      : Effective Core Potentials
   Marius Retegan         : Local ZFS, SOC
   Christoph Riplinger    : Optimizer, TS searches, QM/MM, DLPNO-CCSD(T), (RO)-DLPNO pert. Triples
   Tobias Risthaus        : Range-separated hybrids, TD-DFT gradient, RPA, STAB
   Michael Roemelt        : Original ROCIS implementation
   Masaaki Saitow         : Open-shell DLPNO-CCSD energy and density
   Barbara Sandhoefer     : DKH picture change effects
   Avijit Sen             : IP-ROCIS
   Kantharuban Sivalingam : CASSCF convergence, NEVPT2, FIC-MRCI
   Bernardo de Souza      : ESD, SOC TD-DFT
   Georgi Stoychev        : AutoAux, RI-MP2 NMR, DLPNO-MP2 response
   Willem Van den Heuvel  : Paramagnetic NMR
   Boris Wezisla          : Elementary symmetry handling
   Frank Wennmohs         : Technical directorship


 We gratefully acknowledge several colleagues who have allowed us to
 interface, adapt or use parts of their codes:
   Stefan Grimme, W. Hujo, H. Kruse, P. Pracht,  : VdW corrections, initial TS optimization,
                  C. Bannwarth, S. Ehlert          DFT functionals, gCP, sTDA/sTD-DF
   Ed Valeev, F. Pavosevic, A. Kumar             : LibInt (2-el integral package), F12 methods
   Garnet Chan, S. Sharma, J. Yang, R. Olivares  : DMRG
   Ulf Ekstrom                                   : XCFun DFT Library
   Mihaly Kallay                                 : mrcc  (arbitrary order and MRCC methods)
   Jiri Pittner, Ondrej Demel                    : Mk-CCSD
   Frank Weinhold                                : gennbo (NPA and NBO analysis)
   Christopher J. Cramer and Donald G. Truhlar   : smd solvation model
   Lars Goerigk                                  : TD-DFT with DH, B97 family of functionals
   V. Asgeirsson, H. Jonsson                     : NEB implementation
   FAccTs GmbH                                   : IRC, NEB, NEB-TS, DLPNO-Multilevel, CI-OPT
                                                   MM, QMMM, 2- and 3-layer-ONIOM, Crystal-QMMM,
                                                   LR-CPCM, SF, NACMEs, symmetry and pop. for TD-DFT,
                                                   nearIR, NL-DFT gradient (VV10), updates on ESD,
                                                   ML-optimized integration grids
   S Lehtola, MJT Oliveira, MAL Marques          : LibXC Library
   Liviu Ungur et al                             : ANISO software


 Your calculation uses the libint2 library for the computation of 2-el integrals
 For citations please refer to: http://libint.valeyev.net

 Your ORCA version has been built with support for libXC version: 5.1.0
 For citations please refer to: https://tddft.org/programs/libxc/

 This ORCA versions uses:
   CBLAS   interface :  Fast vector & matrix operations
   LAPACKE interface :  Fast linear algebra routines
   SCALAPACK package :  Parallel linear algebra routines
   Shared memory     :  Shared parallel matrices
   BLAS/LAPACK       :  OpenBLAS 0.3.15  USE64BITINT DYNAMIC_ARCH NO_AFFINITY Haswell SINGLE_THREADED
        Core in use  :  Haswell
   Copyright (c) 2011-2014, The OpenBLAS Project


Your calculation utilizes the atom-pairwise dispersion correction
with the Becke-Johnson damping scheme (D3BJ)
Cite in your paper:
S.Grimme, S.Ehrlich, L.Goerigk, J Comput Chem, (2011), 32, 1456–1465 
S.Grimme, J.Antony, S.Ehrlich and H.Krieg, J.Chem.Phys., 132, (2010), 154104 
   

================================================================================

----- Orbital basis set information -----
Your calculation utilizes the basis: def2-TZVP
   F. Weigend and R. Ahlrichs, Phys. Chem. Chem. Phys. 7, 3297 (2005).

----- AuxJ basis set information -----
Your calculation utilizes the auxiliary basis: def2/J
   F. Weigend, Phys. Chem. Chem. Phys. 8, 1057 (2006).

================================================================================
                                        WARNINGS
                       Please study these warnings very carefully!
================================================================================


WARNING: your system is open-shell and RHF/RKS was chosen
  ===> : WILL SWITCH to UHF/UKS


INFO   : the flag for use of the SHARK integral package has been found!

================================================================================
                                       INPUT FILE
================================================================================
NAME = ex1.inp
|  1> ! PBE D3 def2-TZVP opt PModel NOAUTOSTART
|  2> %pal nprocs=8 end
|  3> %geom maxiter=150 end
|  4> %base "3_M0003"
|  5> *xyz 0 2
|  6>   O   2.11321453009376     -2.32794854753386      0.98476277851359
|  7>   C   1.72884126384579     -1.11924648333468      0.56010285037309
|  8>   C   0.47014471637733     -0.84941779106061      0.00457056000062
|  9>   C   0.12236361060552      0.43451034380445     -0.47176865444148
| 10>   C   -1.21013814440500      0.65473280255247     -1.11897380690020
| 11>   C   -2.39435941864750      0.47639948303116     -0.12091122941784
| 12>   N   -3.72861107764558      0.46909621998731     -0.69943205179169
| 13>   H   -1.52799379795498     -2.50964505844417      2.59595010567914
| 14>   H   -3.96559271357388      1.34463318552126     -1.16348020386066
| 15>   H   -3.83723992678969     -0.28089272049456     -1.38545350613952
| 16>   C   1.06945679508291      1.47913315905357     -0.34731997231741
| 17>   C   2.29942670527835      1.26377791109814      0.21935525940880
| 18>   C   2.72630911954258     -0.03331817866333      0.70809034292727
| 19>   O   3.83525778610443     -0.24124822162103      1.23450469395011
| 20>   H   1.32458446607051     -2.90907318241962      1.03162956305942
| 21>   H   -0.21114638221449     -1.69905931624248     -0.26476149380067
| 22>   H   -1.24325848228140      1.67661298997254     -1.53125486137259
| 23>   H   -1.34916651831432     -0.04175294291823     -1.96463607922668
| 24>   H   -2.24101249381464     -0.47418765934727      0.41301988060481
| 25>   H   -2.32411758593232      1.27819330356414      0.62601997549904
| 26>   H   0.80240516722990      2.47226902395533     -0.71832645390960
| 27>   H   3.02084088624298      2.07006606966474      0.32400631970951
| 28>   Cu  -0.78753931190021     -1.67635605412526      1.58480674045290
| 29> *
| 30> 
| 31>                          ****END OF INPUT****
================================================================================

                       *****************************
                       * Geometry Optimization Run *
                       *****************************

Geometry optimization settings:
Update method            Update   .... BFGS
Choice of coordinates    CoordSys .... Z-matrix Internals
Initial Hessian          InHess   .... Almoef's Model

Convergence Tolerances:
Energy Change            TolE     ....  5.0000e-06 Eh
Max. Gradient            TolMAXG  ....  3.0000e-04 Eh/bohr
RMS Gradient             TolRMSG  ....  1.0000e-04 Eh/bohr
Max. Displacement        TolMAXD  ....  4.0000e-03 bohr
RMS Displacement         TolRMSD  ....  2.0000e-03 bohr
Strict Convergence                ....  False
------------------------------------------------------------------------------
                        ORCA OPTIMIZATION COORDINATE SETUP
------------------------------------------------------------------------------

The optimization will be done in new redundant internal coordinates
Making redundant internal coordinates   ...  (new redundants) done
Evaluating the initial hessian          ...  (Almloef) done
Evaluating the coordinates              ...  done
Calculating the B-matrix                .... done
Calculating the G-matrix                .... done
Diagonalizing the G-matrix              .... done
The first mode is                       ....  104
The number of degrees of freedom        ....   63

    -----------------------------------------------------------------
                    Redundant Internal Coordinates


    -----------------------------------------------------------------
         Definition                    Initial Value    Approx d2E/dq
    -----------------------------------------------------------------
      1. B(C   1,O   0)                  1.3375         0.678510   
      2. B(C   2,C   1)                  1.4020         0.597744   
      3. B(C   3,C   2)                  1.4129         0.574358   
      4. B(C   4,C   3)                  1.4976         0.420728   
      5. B(C   5,C   4)                  1.5589         0.335890   
      6. B(N   6,C   5)                  1.4543         0.441876   
      7. B(H   8,N   6)                  1.0189         0.418858   
      8. B(H   9,N   6)                  1.0222         0.413731   
      9. B(C  10,C   3)                  1.4155         0.568874   
     10. B(C  11,C  10)                  1.3712         0.669351   
     11. B(C  12,C  11)                  1.4504         0.500536   
     12. B(C  12,C   1)                  1.4819         0.445747   
     13. B(O  13,C  12)                  1.2450         0.953140   
     14. B(H  14,O   0)                  0.9807         0.481822   
     15. B(H  15,C   2)                  1.1219         0.320317   
     16. B(H  16,C   4)                  1.1024         0.344049   
     17. B(H  17,C   4)                  1.1043         0.341622   
     18. B(H  18,C   5)                  1.1010         0.345831   
     19. B(H  19,C   5)                  1.0980         0.349607   
     20. B(H  20,C  10)                  1.0933         0.355775   
     21. B(H  21,C  11)                  1.0870         0.364139   
     22. B(Cu 22,H  18)                  2.2206         0.057255   
     23. B(Cu 22,H  15)                  1.9374         0.162003   
     24. B(Cu 22,H   7)                  1.5050         0.793280   
     25. B(Cu 22,C   2)                  2.1824         0.344101   
     26. B(Cu 22,C   1)                  2.7735         0.039220   
     27. A(C   1,O   0,H  14)          108.6358         0.371009   
     28. A(C   2,C   1,C  12)          120.1863         0.406595   
     29. A(C  12,C   1,Cu 22)          136.1354         0.287001   
     30. A(O   0,C   1,Cu 22)           87.8171         0.304963   
     31. A(C   2,C   1,Cu 22)           50.9891         0.300597   
     32. A(O   0,C   1,C  12)          115.9166         0.413148   
     33. A(O   0,C   1,C   2)          123.8970         0.435406   
     34. A(C   1,C   2,C   3)          121.9679         0.425351   
     35. A(C   3,C   2,H  15)          117.2446         0.341598   
     36. A(C   3,C   2,Cu 22)          116.5251         0.431819   
     37. A(C   1,C   2,Cu 22)           99.0641         0.434929   
     38. A(C   1,C   2,H  15)          119.6409         0.343890   
     39. A(H  15,C   2,Cu 22)           62.4122         0.348792   
     40. A(C   2,C   3,C   4)          119.8887         0.399651   
     41. A(C   4,C   3,C  10)          121.6531         0.398977   
     42. A(C   2,C   3,C  10)          118.4425         0.421603   
     43. A(C   5,C   4,H  16)          108.8229         0.316364   
     44. A(C   5,C   4,H  17)          108.8127         0.316000   
     45. A(C   3,C   4,H  16)          108.9444         0.328254   
     46. A(C   3,C   4,C   5)          112.4810         0.364131   
     47. A(H  16,C   4,H  17)          107.1243         0.286399   
     48. A(C   3,C   4,H  17)          110.4993         0.327871   
     49. A(H  18,C   5,H  19)          106.9568         0.287667   
     50. A(N   6,C   5,H  19)          109.4482         0.329806   
     51. A(C   4,C   5,H  19)          107.6604         0.317190   
     52. A(N   6,C   5,H  18)          108.4430         0.329215   
     53. A(C   4,C   5,H  18)          107.6641         0.316630   
     54. A(C   4,C   5,N   6)          116.2841         0.364913   
     55. A(C   5,N   6,H   9)          111.6018         0.336246   
     56. A(C   5,N   6,H   8)          112.9710         0.336937   
     57. A(H   8,N   6,H   9)          107.4639         0.299537   
     58. A(C   3,C  10,H  20)          118.4965         0.347111   
     59. A(C   3,C  10,C  11)          121.3708         0.433327   
     60. A(C  11,C  10,H  20)          120.1323         0.356790   
     61. A(C  10,C  11,C  12)          122.9368         0.423496   
     62. A(C  12,C  11,H  21)          115.8238         0.341064   
     63. A(C  10,C  11,H  21)          121.2388         0.358202   
     64. A(C   1,C  12,C  11)          115.0613         0.394090   
     65. A(C  11,C  12,O  13)          123.6413         0.448374   
     66. A(C   1,C  12,O  13)          121.2895         0.439067   
     67. A(C   2,H  15,Cu 22)           86.7098         0.287694   
     68. A(C   5,H  18,Cu 22)          144.5370         0.248764   
     69. A(H  15,Cu 22,H  18)           72.3807         0.251982   
     70. A(H   7,Cu 22,H  18)          109.4054         0.322502   
     71. A(C   2,Cu 22,H  18)           77.8761         0.302099   
     72. A(C   1,Cu 22,H  18)          106.8673         0.219348   
     73. A(H   7,Cu 22,H  15)          141.3765         0.384481   
     74. A(C   2,Cu 22,H  15)           30.8780         0.358662   
     75. A(C   1,Cu 22,H  15)           51.6645         0.253946   
     76. A(C   2,Cu 22,H   7)          168.4676         0.475340   
     77. A(C   1,Cu 22,H   7)          143.6885         0.325316   
     78. A(C   1,Cu 22,C   2)           29.9468         0.304666   
     79. D(C   2,C   1,O   0,H  14)    -12.7433         0.037866   
     80. D(C  12,C   1,O   0,H  14)    167.1769         0.037866   
     81. D(Cu 22,C   1,O   0,H  14)     25.5805         0.037866   
     82. D(C   3,C   2,C   1,Cu 22)    129.2454         0.028741   
     83. D(H  15,C   2,C   1,O   0)    -10.4445         0.028741   
     84. D(H  15,C   2,C   1,C  12)    169.6385         0.028741   
     85. D(Cu 22,C   2,C   1,C  12)   -127.0278         0.028741   
     86. D(C   3,C   2,C   1,C  12)      2.2176         0.028741   
     87. D(H  15,C   2,C   1,Cu 22)    -63.3337         0.028741   
     88. D(C   3,C   2,C   1,O   0)   -177.8654         0.028741   
     89. D(Cu 22,C   2,C   1,O   0)     52.8892         0.028741   
     90. D(C   4,C   3,C   2,Cu 22)    -61.7931         0.024586   
     91. D(C  10,C   3,C   2,C   1)     -1.6475         0.024586   
     92. D(C   4,C   3,C   2,H  15)      9.2311         0.024586   
     93. D(C   4,C   3,C   2,C   1)    176.9383         0.024586   
     94. D(C  10,C   3,C   2,H  15)   -169.3547         0.024586   
     95. D(C  10,C   3,C   2,Cu 22)    119.6210         0.024586   
     96. D(H  17,C   4,C   3,C  10)    122.9099         0.013088   
     97. D(H  16,C   4,C   3,C  10)      5.4787         0.013088   
     98. D(H  16,C   4,C   3,C   2)   -173.0605         0.013088   
     99. D(C   5,C   4,C   3,C   2)     66.1944         0.013088   
    100. D(H  17,C   4,C   3,C   2)    -55.6294         0.013088   
    101. D(C   5,C   4,C   3,C  10)   -115.2663         0.013088   
    102. D(H  19,C   5,C   4,C   3)     65.9007         0.009156   
    103. D(H  18,C   5,C   4,H  17)     73.6780         0.009156   
    104. D(H  18,C   5,C   4,H  16)   -169.9136         0.009156   
    105. D(N   6,C   5,C   4,H  17)    -48.1640         0.009156   
    106. D(N   6,C   5,C   4,H  16)     68.2445         0.009156   
    107. D(N   6,C   5,C   4,C   3)   -170.9407         0.009156   
    108. D(H  19,C   5,C   4,H  16)    -54.9142         0.009156   
    109. D(H  18,C   5,C   4,C   3)    -49.0987         0.009156   
    110. D(H  19,C   5,C   4,H  17)   -171.3226         0.009156   
    111. D(H   9,N   6,C   5,H  19)   -178.6706         0.016650   
    112. D(H   9,N   6,C   5,H  18)    -62.3240         0.016650   
    113. D(H   9,N   6,C   5,C   4)     59.1059         0.016650   
    114. D(H   8,N   6,C   5,H  19)     60.1035         0.016650   
    115. D(H   8,N   6,C   5,H  18)    176.4501         0.016650   
    116. D(H   8,N   6,C   5,C   4)    -62.1200         0.016650   
    117. D(C  11,C  10,C   3,C   4)   -178.5196         0.022196   
    118. D(C  11,C  10,C   3,C   2)      0.0400         0.022196   
    119. D(H  20,C  10,C   3,C   2)    179.8196         0.022196   
    120. D(H  20,C  10,C   3,C   4)      1.2600         0.022196   
    121. D(H  21,C  11,C  10,H  20)      0.9209         0.031329   
    122. D(H  21,C  11,C  10,C   3)   -179.3030         0.031329   
    123. D(C  12,C  11,C  10,H  20)   -178.8074         0.031329   
    124. D(C  12,C  11,C  10,C   3)      0.9686         0.031329   
    125. D(O  13,C  12,C  11,H  21)      0.8659         0.017065   
    126. D(C   1,C  12,C  11,H  21)    179.8591         0.017065   
    127. D(C   1,C  12,C  11,C  10)     -0.3989         0.017065   
    128. D(O  13,C  12,C   1,Cu 22)    114.3232         0.014656   
    129. D(O  13,C  12,C   1,C   2)    177.8571         0.014656   
    130. D(O  13,C  12,C   1,O   0)     -2.0663         0.014656   
    131. D(C  11,C  12,C   1,Cu 22)    -64.6961         0.014656   
    132. D(O  13,C  12,C  11,C  10)   -179.3922         0.017065   
    133. D(C  11,C  12,C   1,C   2)     -1.1622         0.014656   
    134. D(C  11,C  12,C   1,O   0)    178.9144         0.014656   
    135. D(Cu 22,H  15,C   2,C   3)   -107.3197         0.091547   
    136. D(Cu 22,H  15,C   2,C   1)     84.6745         0.091547   
    137. D(Cu 22,H  18,C   5,H  19)    -64.0245         0.110112   
    138. D(Cu 22,H  18,C   5,N   6)    178.0309         0.110112   
    139. D(Cu 22,H  18,C   5,C   4)     51.4401         0.110112   
    140. D(C   2,Cu 22,C   1,C  12)     95.2192         0.001509   
    141. D(C   2,Cu 22,C   1,O   0)   -138.5158         0.001509   
    142. D(H  15,Cu 22,H  18,C   5)    -72.6537         0.001583   
    143. D(H   7,Cu 22,H  18,C   5)    148.1270         0.001583   
    144. D(C   1,Cu 22,H  18,C   5)    -33.5809         0.001583   
    145. D(H  18,Cu 22,H  15,C   2)     95.8390         0.002156   
    146. D(H   7,Cu 22,H  15,C   2)   -164.8974         0.002156   
    147. D(C   1,Cu 22,H  15,C   2)    -33.8974         0.002156   
    148. D(H  18,Cu 22,C   2,H  15)    -75.8769         0.002060   
    149. D(H  18,Cu 22,C   2,C   3)     32.5733         0.002060   
    150. D(H  18,Cu 22,C   2,C   1)    165.3263         0.002060   
    151. D(H  15,Cu 22,C   2,C   1)   -118.7968         0.002060   
    152. D(H   7,Cu 22,C   2,H  15)     54.4384         0.002060   
    153. D(H   7,Cu 22,C   2,C   3)    162.8886         0.002060   
    154. D(H   7,Cu 22,C   2,C   1)    -64.3584         0.002060   
    155. D(C   1,Cu 22,C   2,H  15)    118.7968         0.002060   
    156. D(H  15,Cu 22,C   2,C   3)    108.4502         0.002060   
    157. D(C   1,Cu 22,C   2,C   3)   -132.7530         0.002060   
    158. D(H  18,Cu 22,C   1,C  12)     80.2204         0.001509   
    159. D(H  18,Cu 22,C   1,C   2)    -14.9988         0.001509   
    160. D(H  18,Cu 22,C   1,O   0)   -153.5145         0.001509   
    161. D(H  15,Cu 22,C   1,C  12)    130.2046         0.001509   
    162. D(H  15,Cu 22,C   1,C   2)     34.9854         0.001509   
    163. D(H  15,Cu 22,C   1,O   0)   -103.5304         0.001509   
    164. D(C   2,Cu 22,H  18,C   5)    -41.1740         0.001583   
    165. D(H   7,Cu 22,C   1,C  12)   -102.5004         0.001509   
    166. D(H   7,Cu 22,C   1,C   2)    162.2805         0.001509   
    167. D(H   7,Cu 22,C   1,O   0)     23.7647         0.001509   
    -----------------------------------------------------------------

Number of atoms                         .... 23
Number of degrees of freedom            .... 167

         *************************************************************
         *                GEOMETRY OPTIMIZATION CYCLE   1            *
         *************************************************************
---------------------------------
CARTESIAN COORDINATES (ANGSTROEM)
---------------------------------
  O      2.113215   -2.327949    0.984763
  C      1.728841   -1.119246    0.560103
  C      0.470145   -0.849418    0.004571
  C      0.122364    0.434510   -0.471769
  C     -1.210138    0.654733   -1.118974
  C     -2.394359    0.476399   -0.120911
  N     -3.728611    0.469096   -0.699432
  H     -1.527994   -2.509645    2.595950
  H     -3.965593    1.344633   -1.163480
  H     -3.837240   -0.280893   -1.385454
  C      1.069457    1.479133   -0.347320
  C      2.299427    1.263778    0.219355
  C      2.726309   -0.033318    0.708090
  O      3.835258   -0.241248    1.234505
  H      1.324584   -2.909073    1.031630
  H     -0.211146   -1.699059   -0.264761
  H     -1.243258    1.676613   -1.531255
  H     -1.349167   -0.041753   -1.964636
  H     -2.241012   -0.474188    0.413020
  H     -2.324118    1.278193    0.626020
  H      0.802405    2.472269   -0.718326
  H      3.020841    2.070066    0.324006
  Cu    -0.787539   -1.676356    1.584807

----------------------------
CARTESIAN COORDINATES (A.U.)
----------------------------
  NO LB      ZA    FRAG     MASS         X           Y           Z
   0 O     8.0000    0    15.999    3.993397   -4.399185    1.860932
   1 C     6.0000    0    12.011    3.267037   -2.115069    1.058441
   2 C     6.0000    0    12.011    0.888445   -1.605167    0.008637
   3 C     6.0000    0    12.011    0.231234    0.821106   -0.891514
   4 C     6.0000    0    12.011   -2.286830    1.237266   -2.114554
   5 C     6.0000    0    12.011   -4.524684    0.900265   -0.228489
   6 N     7.0000    0    14.007   -7.046054    0.886463   -1.321735
   7 H     1.0000    0     1.008   -2.887490   -4.742542    4.905635
   8 H     1.0000    0     1.008   -7.493884    2.540988   -2.198659
   9 H     1.0000    0     1.008   -7.251333   -0.530810   -2.618128
  10 C     6.0000    0    12.011    2.020980    2.795157   -0.656340
  11 C     6.0000    0    12.011    4.345287    2.388194    0.414521
  12 C     6.0000    0    12.011    5.151978   -0.062962    1.338097
  13 O     8.0000    0    15.999    7.247587   -0.455893    2.332876
  14 H     1.0000    0     1.008    2.503102   -5.497352    1.949497
  15 H     1.0000    0     1.008   -0.399009   -3.210757   -0.500327
  16 H     1.0000    0     1.008   -2.349418    3.168339   -2.893652
  17 H     1.0000    0     1.008   -2.549555   -0.078902   -3.712624
  18 H     1.0000    0     1.008   -4.234900   -0.896085    0.780494
  19 H     1.0000    0     1.008   -4.391946    2.415435    1.183006
  20 H     1.0000    0     1.008    1.516326    4.671911   -1.357440
  21 H     1.0000    0     1.008    5.708562    3.911858    0.612283
  22 Cu   29.0000    0    63.550   -1.488234   -3.167854    2.994851

--------------------------------
INTERNAL COORDINATES (ANGSTROEM)
--------------------------------
 O      0   0   0     0.000000000000     0.00000000     0.00000000
 C      1   0   0     1.337549827997     0.00000000     0.00000000
 C      2   1   0     1.402048732188   123.89702213     0.00000000
 C      3   2   1     1.412912665470   121.96787485   182.13461542
 C      4   3   2     1.497642603498   119.88871998   176.93829377
 C      5   4   3     1.558945703926   112.48100980    66.19444452
 N      6   5   4     1.454292669689   116.28412682   189.05927095
 H      3   2   1     3.669354173636    97.00569374    48.61784543
 H      7   6   5     1.018855220933   112.97096401   297.88003298
 H      7   6   5     1.022207940459   111.60179013    59.10594160
 C      4   3   2     1.415524567327   118.44251900   358.35246515
 C     11   4   3     1.371249313969   121.37075028     0.04004967
 C     12  11   4     1.450361625094   122.93684804     0.96860790
 O     13  12  11     1.245035789364   123.64134695   180.60782764
 H      1   2   3     0.980734273209   108.63576241   347.25665619
 H      3   2   1     1.121868101667   119.64088798   349.55549190
 H      5   4   3     1.102411784271   108.94440939   186.93947736
 H      5   4   3     1.104339604122   110.49928345   304.37064895
 H      6   5   4     1.101005733346   107.66414032   310.90126282
 H      6   5   4     1.098049848862   107.66036711    65.90065411
 H     11   4   3     1.093289178341   118.49654919   179.81962687
 H     12  11   4     1.086964056243   121.23883317   180.69695965
 Cu     8   3   2     1.505009739397     6.82889071   116.23900145

---------------------------
INTERNAL COORDINATES (A.U.)
---------------------------
 O      0   0   0     0.000000000000     0.00000000     0.00000000
 C      1   0   0     2.527602865387     0.00000000     0.00000000
 C      2   1   0     2.649488130247   123.89702213     0.00000000
 C      3   2   1     2.670017988887   121.96787485   182.13461542
 C      4   3   2     2.830134367104   119.88871998   176.93829377
 C      5   4   3     2.945980438074   112.48100980    66.19444452
 N      6   5   4     2.748214864281   116.28412682   189.05927095
 H      3   2   1     6.934074476534    97.00569374    48.61784543
 H      7   6   5     1.925357337679   112.97096401   297.88003298
 H      7   6   5     1.931693059387   111.60179013    59.10594160
 C      4   3   2     2.674953768085   118.44251900   358.35246515
 C     11   4   3     2.591285664729   121.37075028     0.04004967
 C     12  11   4     2.740786266576   122.93684804     0.96860790
 O     13  12  11     2.352776668828   123.64134695   180.60782764
 H      1   2   3     1.853319186515   108.63576241   347.25665619
 H      3   2   1     2.120023470533   119.64088798   349.55549190
 H      5   4   3     2.083256359080   108.94440939   186.93947736
 H      5   4   3     2.086899410633   110.49928345   304.37064895
 H      6   5   4     2.080599307901   107.66414032   310.90126282
 H      6   5   4     2.075013495743   107.66036711    65.90065411
 H     11   4   3     2.066017132243   118.49654919   179.81962687
 H     12  11   4     2.054064383715   121.23883317   180.69695965
 Cu     8   3   2     2.844056236344     6.82889071   116.23900145

---------------------
BASIS SET INFORMATION
---------------------
There are 5 groups of distinct atoms

 Group   1 Type O   : 11s6p2d1f contracted to 5s3p2d1f pattern {62111/411/11/1}
 Group   2 Type C   : 11s6p2d1f contracted to 5s3p2d1f pattern {62111/411/11/1}
 Group   3 Type N   : 11s6p2d1f contracted to 5s3p2d1f pattern {62111/411/11/1}
 Group   4 Type H   : 5s1p contracted to 3s1p pattern {311/1}
 Group   5 Type Cu  : 17s11p7d1f contracted to 6s4p4d1f pattern {842111/6311/4111/1}

Atom   0O    basis set group =>   1
Atom   1C    basis set group =>   2
Atom   2C    basis set group =>   2
Atom   3C    basis set group =>   2
Atom   4C    basis set group =>   2
Atom   5C    basis set group =>   2
Atom   6N    basis set group =>   3
Atom   7H    basis set group =>   4
Atom   8H    basis set group =>   4
Atom   9H    basis set group =>   4
Atom  10C    basis set group =>   2
Atom  11C    basis set group =>   2
Atom  12C    basis set group =>   2
Atom  13O    basis set group =>   1
Atom  14H    basis set group =>   4
Atom  15H    basis set group =>   4
Atom  16H    basis set group =>   4
Atom  17H    basis set group =>   4
Atom  18H    basis set group =>   4
Atom  19H    basis set group =>   4
Atom  20H    basis set group =>   4
Atom  21H    basis set group =>   4
Atom  22Cu   basis set group =>   5
---------------------------------
AUXILIARY/J BASIS SET INFORMATION
---------------------------------
There are 5 groups of distinct atoms

 Group   1 Type O   : 12s5p4d2f1g contracted to 6s4p3d1f1g pattern {711111/2111/211/2/1}
 Group   2 Type C   : 12s5p4d2f1g contracted to 6s4p3d1f1g pattern {711111/2111/211/2/1}
 Group   3 Type N   : 12s5p4d2f1g contracted to 6s4p3d1f1g pattern {711111/2111/211/2/1}
 Group   4 Type H   : 5s2p1d contracted to 3s1p1d pattern {311/2/1}
 Group   5 Type Cu  : 19s5p5d3f3g contracted to 8s5p4d3f3g pattern {121111111/11111/2111/111/111}

Atom   0O    basis set group =>   1
Atom   1C    basis set group =>   2
Atom   2C    basis set group =>   2
Atom   3C    basis set group =>   2
Atom   4C    basis set group =>   2
Atom   5C    basis set group =>   2
Atom   6N    basis set group =>   3
Atom   7H    basis set group =>   4
Atom   8H    basis set group =>   4
Atom   9H    basis set group =>   4
Atom  10C    basis set group =>   2
Atom  11C    basis set group =>   2
Atom  12C    basis set group =>   2
Atom  13O    basis set group =>   1
Atom  14H    basis set group =>   4
Atom  15H    basis set group =>   4
Atom  16H    basis set group =>   4
Atom  17H    basis set group =>   4
Atom  18H    basis set group =>   4
Atom  19H    basis set group =>   4
Atom  20H    basis set group =>   4
Atom  21H    basis set group =>   4
Atom  22Cu   basis set group =>   5


           ************************************************************
           *        Program running with 8 parallel MPI-processes     *
           *              working on a common directory               *
           ************************************************************
------------------------------------------------------------------------------
                           ORCA GTO INTEGRAL CALCULATION
                           -- RI-GTO INTEGRALS CHOSEN --
------------------------------------------------------------------------------
------------------------------------------------------------------------------
                   ___                                                        
                  /   \      - P O W E R E D   B Y -                         
                 /     \                                                     
                 |  |  |   _    _      __       _____    __    __             
                 |  |  |  | |  | |    /  \     |  _  \  |  |  /  |          
                  \  \/   | |  | |   /    \    | | | |  |  | /  /          
                 / \  \   | |__| |  /  /\  \   | |_| |  |  |/  /          
                |  |  |   |  __  | /  /__\  \  |    /   |      \           
                |  |  |   | |  | | |   __   |  |    \   |  |\   \          
                \     /   | |  | | |  |  |  |  | |\  \  |  | \   \       
                 \___/    |_|  |_| |__|  |__|  |_| \__\ |__|  \__/        
                                                                              
                      - O R C A' S   B I G   F R I E N D -                    
                                      &                                       
                       - I N T E G R A L  F E E D E R -                       
                                                                              
 v1 FN, 2020, v2 2021                                                         
------------------------------------------------------------------------------


Reading SHARK input file 3_M0003.SHARKINP.tmp ... ok
----------------------
SHARK INTEGRAL PACKAGE
----------------------

Number of atoms                             ...     23
Number of basis functions                   ...    452
Number of shells                            ...    180
Maximum angular momentum                    ...      3
Integral batch strategy                     ... SHARK/LIBINT Hybrid
RI-J (if used) integral strategy            ... SPLIT-RIJ (Revised 2003 algorithm where possible)
Printlevel                                  ...      1
Contraction scheme used                     ... SEGMENTED contraction
Coulomb Range Separation                    ... NOT USED
Exchange Range Separation                   ... NOT USED
Finite Nucleus Model                        ... NOT USED
Auxiliary Coulomb fitting basis             ... AVAILABLE
   # of basis functions in Aux-J            ...    751
   # of shells in Aux-J                     ...    243
   Maximum angular momentum in Aux-J        ...      4
Auxiliary J/K fitting basis                 ... NOT available
Auxiliary Correlation fitting basis         ... NOT available
Auxiliary 'external' fitting basis          ... NOT available
Integral threshold                          ...     2.500000e-11
Primitive cut-off                           ...     2.500000e-12
Primitive pair pre-selection threshold      ...     2.500000e-12

Calculating pre-screening integrals         ... done (  0.1 sec) Dimension = 180
Organizing shell pair data                  ... done (  0.4 sec)
Shell pair information
Total number of shell pairs                 ...     16290
Shell pairs after pre-screening             ...     13401
Total number of primitive shell pairs       ...     52337
Primitive shell pairs kept                  ...     29995
          la=0 lb=0:   3560 shell pairs
          la=1 lb=0:   3764 shell pairs
          la=1 lb=1:   1021 shell pairs
          la=2 lb=0:   2015 shell pairs
          la=2 lb=1:   1068 shell pairs
          la=2 lb=2:    300 shell pairs
          la=3 lb=0:    874 shell pairs
          la=3 lb=1:    477 shell pairs
          la=3 lb=2:    258 shell pairs
          la=3 lb=3:     64 shell pairs

Calculating one electron integrals          ... done (  0.0 sec)
Calculating RI/J V-Matrix + Cholesky decomp.... done (  0.0 sec)
Calculating Nuclear repulsion               ... done (  0.0 sec) ENN=    956.738979709574 Eh

SHARK setup successfully completed in   0.8 seconds

Maximum memory used throughout the entire GTOINT-calculation: 29.9 MB


           ************************************************************
           *        Program running with 8 parallel MPI-processes     *
           *              working on a common directory               *
           ************************************************************
-------------------------------------------------------------------------------
                                 ORCA SCF
-------------------------------------------------------------------------------

------------
SCF SETTINGS
------------
Hamiltonian:
 Density Functional     Method          .... DFT(GTOs)
 Exchange Functional    Exchange        .... PBE
   PBE kappa parameter   XKappa         ....  0.804000
   PBE mue parameter    XMuePBE         ....  0.219520
 Correlation Functional Correlation     .... PBE
   PBE beta parameter  CBetaPBE         ....  0.066725
 LDA part of GGA corr.  LDAOpt          .... PW91-LDA
 Gradients option       PostSCFGGA      .... off
   Density functional embedding theory  .... OFF
   NL short-range parameter             ....  6.400000
 RI-approximation to the Coulomb term is turned on
   Number of AuxJ basis functions       .... 751


General Settings:
 Integral files         IntName         .... 3_M0003
 Hartree-Fock type      HFTyp           .... UHF
 Total Charge           Charge          ....    0
 Multiplicity           Mult            ....    2
 Number of Electrons    NEL             ....  111
 Basis Dimension        Dim             ....  452
 Nuclear Repulsion      ENuc            ....    956.7389797096 Eh

Convergence Acceleration:
 DIIS                   CNVDIIS         .... on
   Start iteration      DIISMaxIt       ....    12
   Startup error        DIISStart       ....  0.200000
   # of expansion vecs  DIISMaxEq       ....     5
   Bias factor          DIISBfac        ....   1.050
   Max. coefficient     DIISMaxC        ....  10.000
 Trust-Rad. Augm. Hess. CNVTRAH         .... auto
   Auto Start mean grad. ratio tolernc. ....  1.125000
   Auto Start start iteration           ....    20
   Auto Start num. interpolation iter.  ....    10
   Max. Number of Micro iterations      ....    16
   Max. Number of Macro iterations      .... Maxiter - #DIIS iter
   Number of Davidson start vectors     ....     2
   Converg. threshold I  (grad. norm)   ....   1.000e-05
   Converg. threshold II (energy diff.) ....   1.000e-08
   Grad. Scal. Fac. for Micro threshold ....   0.100
   Minimum threshold for Micro iter.    ....   0.010
   NR start threshold (gradient norm)   ....   0.001
   Initial trust radius                 ....   0.400
   Minimum AH scaling param. (alpha)    ....   1.000
   Maximum AH scaling param. (alpha)    .... 1000.000
   Orbital update algorithm             .... Taylor
   White noise on init. David. guess    .... on
   Maximum white noise                  ....   0.010
   Quad. conv. algorithm                .... NR
 SOSCF                  CNVSOSCF        .... off
 Level Shifting         CNVShift        .... on
   Level shift para.    LevelShift      ....    0.2500
   Turn off err/grad.   ShiftErr        ....    0.0010
 Zerner damping         CNVZerner       .... off
 Static damping         CNVDamp         .... on
   Fraction old density DampFac         ....    0.7000
   Max. Damping (<1)    DampMax         ....    0.9800
   Min. Damping (>=0)   DampMin         ....    0.0000
   Turn off err/grad.   DampErr         ....    0.1000
 Fernandez-Rico         CNVRico         .... off

SCF Procedure:
 Maximum # iterations   MaxIter         ....   125
 SCF integral mode      SCFMode         .... Direct
   Integral package                     .... SHARK and LIBINT hybrid scheme
 Reset frequency        DirectResetFreq ....    20
 Integral Threshold     Thresh          ....  2.500e-11 Eh
 Primitive CutOff       TCut            ....  2.500e-12 Eh

Convergence Tolerance:
 Convergence Check Mode ConvCheckMode   .... Total+1el-Energy
 Convergence forced     ConvForced      .... 0
 Energy Change          TolE            ....  1.000e-08 Eh
 1-El. energy change                    ....  1.000e-05 Eh
 DIIS Error             TolErr          ....  5.000e-07


Diagonalization of the overlap matrix:
Smallest eigenvalue                        ... 1.021e-05
Time for diagonalization                   ...    0.045 sec
Threshold for overlap eigenvalues          ... 1.000e-08
Number of eigenvalues below threshold      ... 0
Time for construction of square roots      ...    0.032 sec
Total time needed                          ...    0.079 sec

Time for model grid setup =    0.142 sec

------------------------------
INITIAL GUESS: MODEL POTENTIAL
------------------------------
Loading Hartree-Fock densities                     ... done
Calculating cut-offs                               ... done
Initializing the effective Hamiltonian             ... done
Setting up the integral package (SHARK)            ... done
Starting the Coulomb interaction                   ... done (   0.3 sec)
Reading the grid                                   ... done
Mapping shells                                     ... done
Starting the XC term evaluation                    ... done (   0.1 sec)
  promolecular density results
     # of electrons  =    110.991732233
     EX              =   -132.503949147
     EC              =     -4.097244805
     EX+EC           =   -136.601193952
Transforming the Hamiltonian                       ... done (   0.0 sec)
Diagonalizing the Hamiltonian                      ... done (   0.0 sec)
Back transforming the eigenvectors                 ... done (   0.0 sec)
Now organizing SCF variables                       ... done
                      ------------------
                      INITIAL GUESS DONE (   0.6 sec)
                      ------------------
-------------------
DFT GRID GENERATION
-------------------

General Integration Accuracy     IntAcc      ... 4.388
Radial Grid Type                 RadialGrid  ... OptM3 with GC (2021)
Angular Grid (max. ang.)         AngularGrid ... 4 (Lebedev-302)
Angular grid pruning method      GridPruning ... 4 (adaptive)
Weight generation scheme         WeightScheme... Becke
Basis function cutoff            BFCut       ... 1.0000e-11
Integration weight cutoff        WCut        ... 1.0000e-14
Angular grids for H and He will be reduced by one unit
Partially contracted basis set               ... off
Rotationally invariant grid construction     ... off

Total number of grid points                  ...   112266
Total number of batches                      ...     1766
Average number of points per batch           ...       63
Average number of grid points per atom       ...     4881
Time for grid setup =    0.679 sec

--------------
SCF ITERATIONS
--------------
ITER       Energy         Delta-E        Max-DP      RMS-DP      [F,P]     Damp
               ***  Starting incremental Fock matrix formation  ***
  0  -2156.1350695923   0.000000000000 0.27349907  0.00165468  0.2605460 0.7000
  1  -2156.3039572894  -0.168887697083 0.18777481  0.00123554  0.0976401 0.7000
                               ***Turning on DIIS***
  2  -2156.3559366789  -0.051979389517 0.23390817  0.00127110  0.0363520 0.0000
  3  -2156.4506279744  -0.094691295483 0.18068650  0.00111737  0.0607740 0.0000
  4  -2156.4714072398  -0.020779265401 0.03810593  0.00023703  0.0331599 0.0000
  5  -2156.4748365150  -0.003429275190 0.02309866  0.00010820  0.0197505 0.0000
  6  -2156.4752165540  -0.000380039024 0.00615450  0.00004888  0.0128301 0.0000
  7  -2156.4754085763  -0.000192022223 0.00210455  0.00002023  0.0016355 0.0000
  8  -2156.4754386960  -0.000030119797 0.00308726  0.00002532  0.0006101 0.0000
  9  -2156.4754598559  -0.000021159866 0.00122928  0.00000736  0.0006731 0.0000
 10  -2156.4754632633  -0.000003407405 0.00091450  0.00000552  0.0003562 0.0000
 11  -2156.4754652678  -0.000002004455 0.00069792  0.00000373  0.0005259 0.0000
 12  -2156.4754662434  -0.000000975671 0.00016984  0.00000153  0.0001095 0.0000
 13  -2156.4754665079  -0.000000264455 0.00014194  0.00000099  0.0000631 0.0000
 14  -2156.4754665578  -0.000000049864 0.00021003  0.00000104  0.0000544 0.0000
 15  -2156.4754665728  -0.000000015038 0.00006628  0.00000070  0.0000829 0.0000
 16  -2156.4754666042  -0.000000031392 0.00025927  0.00000144  0.0000294 0.0000
 17  -2156.4754666045  -0.000000000271 0.00006179  0.00000033  0.0000406 0.0000
 18  -2156.4754666004   0.000000004025 0.00006532  0.00000025  0.0000163 0.0000
 19  -2156.4754665841   0.000000016333 0.00023679  0.00000142  0.0000037 0.0000
               *** Restarting incremental Fock matrix formation ***
                                   *** Resetting DIIS ***
 20  -2156.4754666181  -0.000000033969 0.00035749  0.00000246  0.0000016 0.0000
 21  -2156.4754666122   0.000000005909 0.00002603  0.00000018  0.0000042 0.0000
 22  -2156.4754666197  -0.000000007511 0.00001209  0.00000017  0.0000013 0.0000
                            ***DIIS convergence achieved***

               *****************************************************
               *                     SUCCESS                       *
               *           SCF CONVERGED AFTER  23 CYCLES          *
               *****************************************************


----------------
TOTAL SCF ENERGY
----------------

Total Energy       :        -2156.47546662 Eh          -58680.68071 eV

Components:
Nuclear Repulsion  :          956.73897971 Eh           26034.19119 eV
Electronic Energy  :        -3113.21444633 Eh          -84714.87191 eV
One Electron Energy:        -4889.17299692 Eh         -133041.16093 eV
Two Electron Energy:         1775.95855059 Eh           48326.28902 eV

Virial components:
Potential Energy   :        -4308.29659707 Eh         -117234.71050 eV
Kinetic Energy     :         2151.82113045 Eh           58554.02979 eV
Virial Ratio       :            2.00216298


DFT components:
N(Alpha)           :       56.000015750493 electrons
N(Beta)            :       55.000016614683 electrons
N(Total)           :      111.000032365176 electrons
E(X)               :     -133.770610851231 Eh       
E(C)               :       -4.098868701318 Eh       
E(XC)              :     -137.869479552550 Eh       
DFET-embed. en.    :        0.000000000000 Eh       

---------------
SCF CONVERGENCE
---------------

  Last Energy change         ...   -1.0655e-09  Tolerance :   1.0000e-08
  Last MAX-Density change    ...    3.3318e-05  Tolerance :   1.0000e-07
  Last RMS-Density change    ...    2.6178e-07  Tolerance :   5.0000e-09
  Last DIIS Error            ...    5.9352e-07  Tolerance :   5.0000e-07

             **** THE GBW FILE WAS UPDATED (3_M0003.gbw) ****
             **** DENSITY 3_M0003.scfp WAS UPDATED ****
             **** ENERGY FILE WAS UPDATED (3_M0003.en.tmp) ****
----------------------
UHF SPIN CONTAMINATION
----------------------

Warning: in a DFT calculation there is little theoretical justification to 
         calculate <S**2> as in Hartree-Fock theory. We will do it anyways
         but you should keep in mind that the values have only limited relevance

Expectation value of <S**2>     :     0.758292
Ideal value S*(S+1) for S=0.5   :     0.750000
Deviation                       :     0.008292

             **** THE GBW FILE WAS UPDATED (3_M0003.gbw) ****
             **** DENSITY 3_M0003.scfp WAS UPDATED ****
----------------
ORBITAL ENERGIES
----------------
                 SPIN UP ORBITALS
  NO   OCC          E(Eh)            E(eV) 
   0   1.0000    -321.520238     -8749.0105 
   1   1.0000     -38.292737     -1041.9983 
   2   1.0000     -33.584366      -913.8771 
   3   1.0000     -33.582996      -913.8398 
   4   1.0000     -33.582763      -913.8334 
   5   1.0000     -18.828147      -512.3399 
   6   1.0000     -18.745223      -510.0834 
   7   1.0000     -13.992966      -380.7679 
   8   1.0000      -9.997102      -272.0350 
   9   1.0000      -9.968662      -271.2611 
  10   1.0000      -9.947983      -270.6984 
  11   1.0000      -9.937431      -270.4112 
  12   1.0000      -9.935767      -270.3660 
  13   1.0000      -9.920351      -269.9465 
  14   1.0000      -9.919801      -269.9315 
  15   1.0000      -9.918016      -269.8829 
  16   1.0000      -4.120459      -112.1234 
  17   1.0000      -2.659853       -72.3783 
  18   1.0000      -2.653446       -72.2039 
  19   1.0000      -2.651547       -72.1523 
  20   1.0000      -1.026121       -27.9222 
  21   1.0000      -0.949146       -25.8276 
  22   1.0000      -0.834477       -22.7073 
  23   1.0000      -0.811486       -22.0816 
  24   1.0000      -0.728663       -19.8279 
  25   1.0000      -0.714383       -19.4393 
  26   1.0000      -0.657464       -17.8905 
  27   1.0000      -0.612764       -16.6742 
  28   1.0000      -0.583899       -15.8887 
  29   1.0000      -0.556431       -15.1413 
  30   1.0000      -0.529853       -14.4180 
  31   1.0000      -0.480560       -13.0767 
  32   1.0000      -0.466319       -12.6892 
  33   1.0000      -0.463158       -12.6032 
  34   1.0000      -0.439387       -11.9563 
  35   1.0000      -0.424482       -11.5507 
  36   1.0000      -0.420579       -11.4445 
  37   1.0000      -0.404942       -11.0190 
  38   1.0000      -0.392876       -10.6907 
  39   1.0000      -0.381172       -10.3722 
  40   1.0000      -0.368846       -10.0368 
  41   1.0000      -0.358797        -9.7634 
  42   1.0000      -0.357477        -9.7274 
  43   1.0000      -0.342324        -9.3151 
  44   1.0000      -0.335995        -9.1429 
  45   1.0000      -0.321548        -8.7498 
  46   1.0000      -0.287196        -7.8150 
  47   1.0000      -0.253765        -6.9053 
  48   1.0000      -0.230758        -6.2792 
  49   1.0000      -0.228545        -6.2190 
  50   1.0000      -0.225518        -6.1367 
  51   1.0000      -0.223573        -6.0837 
  52   1.0000      -0.222092        -6.0434 
  53   1.0000      -0.218953        -5.9580 
  54   1.0000      -0.202481        -5.5098 
  55   1.0000      -0.198947        -5.4136 
  56   0.0000      -0.095122        -2.5884 
  57   0.0000      -0.060179        -1.6375 
  58   0.0000      -0.035859        -0.9758 
  59   0.0000      -0.024548        -0.6680 
  60   0.0000      -0.011242        -0.3059 
  61   0.0000      -0.003770        -0.1026 
  62   0.0000       0.013127         0.3572 
  63   0.0000       0.027886         0.7588 
  64   0.0000       0.044399         1.2082 
  65   0.0000       0.048221         1.3122 
  66   0.0000       0.065117         1.7719 
  67   0.0000       0.070571         1.9203 
  68   0.0000       0.076826         2.0905 
  69   0.0000       0.081014         2.2045 
  70   0.0000       0.086716         2.3597 
  71   0.0000       0.095948         2.6109 
  72   0.0000       0.110526         3.0076 
  73   0.0000       0.116546         3.1714 
  74   0.0000       0.128423         3.4946 
  75   0.0000       0.136080         3.7029 
  76   0.0000       0.144037         3.9195 
  77   0.0000       0.154186         4.1956 
  78   0.0000       0.163475         4.4484 
  79   0.0000       0.169407         4.6098 
  80   0.0000       0.175329         4.7710 
  81   0.0000       0.186595         5.0775 
  82   0.0000       0.192671         5.2429 
  83   0.0000       0.198451         5.4001 
  84   0.0000       0.199785         5.4364 
  85   0.0000       0.209118         5.6904 
  86   0.0000       0.226525         6.1641 
  87   0.0000       0.231589         6.3019 
  88   0.0000       0.241158         6.5622 
  89   0.0000       0.244610         6.6562 
  90   0.0000       0.249446         6.7878 
  91   0.0000       0.255341         6.9482 
  92   0.0000       0.260437         7.0868 
  93   0.0000       0.269866         7.3434 
  94   0.0000       0.279940         7.6176 
  95   0.0000       0.285670         7.7735 
  96   0.0000       0.288218         7.8428 
  97   0.0000       0.294611         8.0168 
  98   0.0000       0.300564         8.1788 
  99   0.0000       0.305949         8.3253 
 100   0.0000       0.317597         8.6423 
 101   0.0000       0.325402         8.8546 
 102   0.0000       0.331892         9.0312 
 103   0.0000       0.341833         9.3018 
 104   0.0000       0.346063         9.4169 
 105   0.0000       0.350614         9.5407 
 106   0.0000       0.356825         9.7097 
 107   0.0000       0.371999        10.1226 
 108   0.0000       0.373973        10.1763 
 109   0.0000       0.379210        10.3188 
 110   0.0000       0.391018        10.6401 
 111   0.0000       0.396864        10.7992 
 112   0.0000       0.402570        10.9545 
 113   0.0000       0.407299        11.0832 
 114   0.0000       0.409014        11.1298 
 115   0.0000       0.414211        11.2713 
 116   0.0000       0.422807        11.5052 
 117   0.0000       0.432635        11.7726 
 118   0.0000       0.452044        12.3007 
 119   0.0000       0.453480        12.3398 
 120   0.0000       0.460874        12.5410 
 121   0.0000       0.473350        12.8805 
 122   0.0000       0.482111        13.1189 
 123   0.0000       0.491561        13.3761 
 124   0.0000       0.501166        13.6374 
 125   0.0000       0.508584        13.8393 
 126   0.0000       0.528448        14.3798 
 127   0.0000       0.533636        14.5210 
 128   0.0000       0.549840        14.9619 
 129   0.0000       0.552226        15.0268 
 130   0.0000       0.555591        15.1184 
 131   0.0000       0.569766        15.5041 
 132   0.0000       0.574430        15.6310 
 133   0.0000       0.575809        15.6686 
 134   0.0000       0.593137        16.1401 
 135   0.0000       0.604069        16.4376 
 136   0.0000       0.621909        16.9230 
 137   0.0000       0.640053        17.4167 
 138   0.0000       0.648522        17.6472 
 139   0.0000       0.655239        17.8300 
 140   0.0000       0.676329        18.4038 
 141   0.0000       0.694348        18.8942 
 142   0.0000       0.698080        18.9957 
 143   0.0000       0.721370        19.6295 
 144   0.0000       0.746343        20.3090 
 145   0.0000       0.747629        20.3440 
 146   0.0000       0.760232        20.6870 
 147   0.0000       0.767363        20.8810 
 148   0.0000       0.778442        21.1825 
 149   0.0000       0.796942        21.6859 
 150   0.0000       0.810914        22.0661 
 151   0.0000       0.823118        22.3982 
 152   0.0000       0.827773        22.5249 
 153   0.0000       0.838124        22.8065 
 154   0.0000       0.843989        22.9661 
 155   0.0000       0.855756        23.2863 
 156   0.0000       0.859599        23.3909 
 157   0.0000       0.871993        23.7281 
 158   0.0000       0.888562        24.1790 
 159   0.0000       0.900826        24.5127 
 160   0.0000       0.925004        25.1706 
 161   0.0000       0.931428        25.3454 
 162   0.0000       0.950592        25.8669 
 163   0.0000       0.964857        26.2551 
 164   0.0000       0.971743        26.4425 
 165   0.0000       0.978672        26.6310 
 166   0.0000       1.000774        27.2324 
 167   0.0000       1.018037        27.7022 
 168   0.0000       1.036398        28.2018 
 169   0.0000       1.047659        28.5083 
 170   0.0000       1.059669        28.8351 
 171   0.0000       1.073314        29.2064 
 172   0.0000       1.094095        29.7718 
 173   0.0000       1.104855        30.0646 
 174   0.0000       1.127155        30.6714 
 175   0.0000       1.134405        30.8687 
 176   0.0000       1.136364        30.9220 
 177   0.0000       1.150948        31.3189 
 178   0.0000       1.182842        32.1868 
 179   0.0000       1.192770        32.4569 
 180   0.0000       1.203221        32.7413 
 181   0.0000       1.208840        32.8942 
 182   0.0000       1.232383        33.5348 
 183   0.0000       1.247529        33.9470 
 184   0.0000       1.260487        34.2996 
 185   0.0000       1.271450        34.5979 
 186   0.0000       1.284042        34.9406 
 187   0.0000       1.298798        35.3421 
 188   0.0000       1.314823        35.7781 
 189   0.0000       1.344955        36.5981 
 190   0.0000       1.345812        36.6214 
 191   0.0000       1.368396        37.2359 
 192   0.0000       1.385653        37.7055 
 193   0.0000       1.391618        37.8679 
 194   0.0000       1.405085        38.2343 
 195   0.0000       1.419236        38.6194 
 196   0.0000       1.448719        39.4216 
 197   0.0000       1.465375        39.8749 
 198   0.0000       1.468468        39.9590 
 199   0.0000       1.488603        40.5070 
 200   0.0000       1.496982        40.7350 
 201   0.0000       1.513097        41.1735 
 202   0.0000       1.519073        41.3361 
 203   0.0000       1.539277        41.8859 
 204   0.0000       1.554312        42.2950 
 205   0.0000       1.564904        42.5832 
 206   0.0000       1.579711        42.9861 
 207   0.0000       1.598072        43.4858 
 208   0.0000       1.609788        43.8045 
 209   0.0000       1.618432        44.0398 
 210   0.0000       1.630404        44.3655 
 211   0.0000       1.639583        44.6153 
 212   0.0000       1.658457        45.1289 
 213   0.0000       1.674839        45.5747 
 214   0.0000       1.694310        46.1045 
 215   0.0000       1.699509        46.2460 
 216   0.0000       1.709377        46.5145 
 217   0.0000       1.719441        46.7884 
 218   0.0000       1.754883        47.7528 
 219   0.0000       1.759816        47.8870 
 220   0.0000       1.780515        48.4503 
 221   0.0000       1.786747        48.6199 
 222   0.0000       1.804964        49.1156 
 223   0.0000       1.808951        49.2240 
 224   0.0000       1.816333        49.4249 
 225   0.0000       1.826621        49.7049 
 226   0.0000       1.836620        49.9770 
 227   0.0000       1.860921        50.6382 
 228   0.0000       1.882565        51.2272 
 229   0.0000       1.890170        51.4341 
 230   0.0000       1.907828        51.9146 
 231   0.0000       1.918009        52.1917 
 232   0.0000       1.928090        52.4660 
 233   0.0000       1.934281        52.6345 
 234   0.0000       1.962348        53.3982 
 235   0.0000       1.993082        54.2345 
 236   0.0000       2.004850        54.5547 
 237   0.0000       2.009536        54.6822 
 238   0.0000       2.021898        55.0186 
 239   0.0000       2.036144        55.4063 
 240   0.0000       2.064969        56.1907 
 241   0.0000       2.077949        56.5439 
 242   0.0000       2.087420        56.8016 
 243   0.0000       2.102949        57.2241 
 244   0.0000       2.141244        58.2662 
 245   0.0000       2.156116        58.6709 
 246   0.0000       2.165018        58.9131 
 247   0.0000       2.168765        59.0151 
 248   0.0000       2.190479        59.6060 
 249   0.0000       2.211146        60.1683 
 250   0.0000       2.235423        60.8290 
 251   0.0000       2.256818        61.4111 
 252   0.0000       2.262627        61.5692 
 253   0.0000       2.280716        62.0614 
 254   0.0000       2.308237        62.8103 
 255   0.0000       2.324172        63.2439 
 256   0.0000       2.324561        63.2545 
 257   0.0000       2.342190        63.7342 
 258   0.0000       2.354235        64.0620 
 259   0.0000       2.375990        64.6540 
 260   0.0000       2.387771        64.9746 
 261   0.0000       2.402607        65.3783 
 262   0.0000       2.429907        66.1211 
 263   0.0000       2.437882        66.3381 
 264   0.0000       2.453418        66.7609 
 265   0.0000       2.463481        67.0347 
 266   0.0000       2.477392        67.4133 
 267   0.0000       2.484851        67.6162 
 268   0.0000       2.500230        68.0347 
 269   0.0000       2.515025        68.4373 
 270   0.0000       2.532462        68.9118 
 271   0.0000       2.534841        68.9765 
 272   0.0000       2.549145        69.3658 
 273   0.0000       2.560193        69.6664 
 274   0.0000       2.566858        69.8478 
 275   0.0000       2.585684        70.3600 
 276   0.0000       2.599510        70.7363 
 277   0.0000       2.620504        71.3076 
 278   0.0000       2.626711        71.4764 
 279   0.0000       2.650431        72.1219 
 280   0.0000       2.673136        72.7397 
 281   0.0000       2.676040        72.8187 
 282   0.0000       2.697320        73.3978 
 283   0.0000       2.706364        73.6439 
 284   0.0000       2.717124        73.9367 
 285   0.0000       2.721493        74.0556 
 286   0.0000       2.727778        74.2266 
 287   0.0000       2.752820        74.9080 
 288   0.0000       2.772398        75.4408 
 289   0.0000       2.787595        75.8543 
 290   0.0000       2.795682        76.0744 
 291   0.0000       2.817333        76.6635 
 292   0.0000       2.831673        77.0537 
 293   0.0000       2.837261        77.2058 
 294   0.0000       2.852650        77.6246 
 295   0.0000       2.864327        77.9423 
 296   0.0000       2.876389        78.2705 
 297   0.0000       2.890416        78.6522 
 298   0.0000       2.908674        79.1491 
 299   0.0000       2.934830        79.8608 
 300   0.0000       2.941837        80.0515 
 301   0.0000       2.945949        80.1633 
 302   0.0000       2.959003        80.5186 
 303   0.0000       2.983216        81.1774 
 304   0.0000       2.998173        81.5844 
 305   0.0000       3.015743        82.0625 
 306   0.0000       3.022138        82.2366 
 307   0.0000       3.032282        82.5126 
 308   0.0000       3.043240        82.8108 
 309   0.0000       3.061750        83.3145 
 310   0.0000       3.066702        83.4492 
 311   0.0000       3.083877        83.9166 
 312   0.0000       3.089188        84.0611 
 313   0.0000       3.121527        84.9411 
 314   0.0000       3.122891        84.9782 
 315   0.0000       3.133368        85.2633 
 316   0.0000       3.137716        85.3816 
 317   0.0000       3.153058        85.7991 
 318   0.0000       3.172542        86.3293 
 319   0.0000       3.195824        86.9628 
 320   0.0000       3.210725        87.3683 
 321   0.0000       3.227701        87.8302 
 322   0.0000       3.236807        88.0780 
 323   0.0000       3.270469        88.9940 
 324   0.0000       3.280854        89.2766 
 325   0.0000       3.293301        89.6153 
 326   0.0000       3.300621        89.8145 
 327   0.0000       3.313840        90.1742 
 328   0.0000       3.318404        90.2984 
 329   0.0000       3.337455        90.8168 
 330   0.0000       3.345213        91.0279 
 331   0.0000       3.360914        91.4551 
 332   0.0000       3.374181        91.8161 
 333   0.0000       3.376839        91.8885 
 334   0.0000       3.391743        92.2940 
 335   0.0000       3.402242        92.5797 
 336   0.0000       3.425542        93.2137 
 337   0.0000       3.445255        93.7501 
 338   0.0000       3.461813        94.2007 
 339   0.0000       3.466542        94.3294 
 340   0.0000       3.486483        94.8720 
 341   0.0000       3.529792        96.0505 
 342   0.0000       3.539636        96.3184 
 343   0.0000       3.565277        97.0161 
 344   0.0000       3.578514        97.3763 
 345   0.0000       3.606084        98.1265 
 346   0.0000       3.614702        98.3610 
 347   0.0000       3.630708        98.7966 
 348   0.0000       3.641897        99.1011 
 349   0.0000       3.662689        99.6668 
 350   0.0000       3.665115        99.7328 
 351   0.0000       3.688720       100.3752 
 352   0.0000       3.728899       101.4685 
 353   0.0000       3.729765       101.4921 
 354   0.0000       3.749573       102.0311 
 355   0.0000       3.769221       102.5657 
 356   0.0000       3.785078       102.9972 
 357   0.0000       3.796582       103.3102 
 358   0.0000       3.810892       103.6996 
 359   0.0000       3.821482       103.9878 
 360   0.0000       3.856403       104.9380 
 361   0.0000       3.873871       105.4134 
 362   0.0000       3.895762       106.0091 
 363   0.0000       3.927706       106.8783 
 364   0.0000       3.934725       107.0693 
 365   0.0000       3.946238       107.3826 
 366   0.0000       3.982849       108.3788 
 367   0.0000       4.000101       108.8483 
 368   0.0000       4.020342       109.3991 
 369   0.0000       4.034150       109.7748 
 370   0.0000       4.061194       110.5107 
 371   0.0000       4.085036       111.1595 
 372   0.0000       4.099425       111.5510 
 373   0.0000       4.105896       111.7271 
 374   0.0000       4.154033       113.0370 
 375   0.0000       4.179826       113.7389 
 376   0.0000       4.213867       114.6651 
 377   0.0000       4.223560       114.9289 
 378   0.0000       4.254358       115.7670 
 379   0.0000       4.282420       116.5306 
 380   0.0000       4.314320       117.3986 
 381   0.0000       4.355155       118.5098 
 382   0.0000       4.406029       119.8941 
 383   0.0000       4.429748       120.5396 
 384   0.0000       4.463486       121.4576 
 385   0.0000       4.500156       122.4555 
 386   0.0000       4.525615       123.1482 
 387   0.0000       4.556827       123.9976 
 388   0.0000       4.567724       124.2941 
 389   0.0000       4.620463       125.7292 
 390   0.0000       4.645552       126.4119 
 391   0.0000       4.686661       127.5305 
 392   0.0000       4.692289       127.6837 
 393   0.0000       4.729650       128.7003 
 394   0.0000       4.746929       129.1705 
 395   0.0000       4.800186       130.6197 
 396   0.0000       4.841501       131.7440 
 397   0.0000       4.859725       132.2398 
 398   0.0000       4.887039       132.9831 
 399   0.0000       4.922091       133.9369 
 400   0.0000       4.971988       135.2947 
 401   0.0000       4.992436       135.8511 
 402   0.0000       5.009930       136.3271 
 403   0.0000       5.070263       137.9689 
 404   0.0000       5.087052       138.4257 
 405   0.0000       5.110086       139.0525 
 406   0.0000       5.160310       140.4192 
 407   0.0000       5.182895       141.0337 
 408   0.0000       5.242094       142.6446 
 409   0.0000       5.257722       143.0699 
 410   0.0000       5.291025       143.9761 
 411   0.0000       5.338666       145.2725 
 412   0.0000       5.343631       145.4076 
 413   0.0000       5.449101       148.2776 
 414   0.0000       5.471985       148.9003 
 415   0.0000       5.609378       152.6389 
 416   0.0000       5.639904       153.4696 
 417   0.0000       5.643270       153.5612 
 418   0.0000       5.648391       153.7005 
 419   0.0000       5.652159       153.8031 
 420   0.0000       5.657064       153.9365 
 421   0.0000       5.675654       154.4424 
 422   0.0000       5.687443       154.7632 
 423   0.0000       5.696904       155.0206 
 424   0.0000       5.786577       157.4608 
 425   0.0000       5.839075       158.8893 
 426   0.0000       5.958999       162.1526 
 427   0.0000       6.053904       164.7351 
 428   0.0000       6.113260       166.3503 
 429   0.0000       6.224717       169.3832 
 430   0.0000       6.261228       170.3767 
 431   0.0000       6.294063       171.2702 
 432   0.0000       6.472234       176.1184 
 433   0.0000       6.547643       178.1704 
 434   0.0000       6.584923       179.1849 
 435   0.0000       6.629545       180.3991 
 436   0.0000       6.681187       181.8043 
 437   0.0000       6.793666       184.8651 
 438   0.0000       6.938271       188.8000 
 439   0.0000       6.977670       189.8721 
 440   0.0000       7.154623       194.6872 
 441   0.0000      21.936719       596.9285 
 442   0.0000      22.153764       602.8346 
 443   0.0000      22.227653       604.8452 
 444   0.0000      22.393168       609.3491 
 445   0.0000      22.446846       610.8097 
 446   0.0000      22.591421       614.7438 
 447   0.0000      22.657225       616.5344 
 448   0.0000      23.149765       629.9371 
 449   0.0000      31.595485       859.7568 
 450   0.0000      43.439333      1182.0443 
 451   0.0000      43.645602      1187.6572 

                 SPIN DOWN ORBITALS
  NO   OCC          E(Eh)            E(eV) 
   0   1.0000    -321.520243     -8749.0106 
   1   1.0000     -38.292362     -1041.9881 
   2   1.0000     -33.584062      -913.8688 
   3   1.0000     -33.582644      -913.8302 
   4   1.0000     -33.582596      -913.8289 
   5   1.0000     -18.826193      -512.2868 
   6   1.0000     -18.737699      -509.8787 
   7   1.0000     -13.992554      -380.7567 
   8   1.0000      -9.994113      -271.9536 
   9   1.0000      -9.968915      -271.2680 
  10   1.0000      -9.944008      -270.5902 
  11   1.0000      -9.937020      -270.4001 
  12   1.0000      -9.936626      -270.3894 
  13   1.0000      -9.920794      -269.9585 
  14   1.0000      -9.919881      -269.9337 
  15   1.0000      -9.915576      -269.8166 
  16   1.0000      -4.119762      -112.1044 
  17   1.0000      -2.659155       -72.3593 
  18   1.0000      -2.652569       -72.1801 
  19   1.0000      -2.651083       -72.1396 
  20   1.0000      -1.022275       -27.8175 
  21   1.0000      -0.937402       -25.5080 
  22   1.0000      -0.833266       -22.6743 
  23   1.0000      -0.806882       -21.9564 
  24   1.0000      -0.724213       -19.7068 
  25   1.0000      -0.711562       -19.3626 
  26   1.0000      -0.653064       -17.7708 
  27   1.0000      -0.609988       -16.5986 
  28   1.0000      -0.582084       -15.8393 
  29   1.0000      -0.553643       -15.0654 
  30   1.0000      -0.527372       -14.3505 
  31   1.0000      -0.479548       -13.0492 
  32   1.0000      -0.464141       -12.6299 
  33   1.0000      -0.461288       -12.5523 
  34   1.0000      -0.435486       -11.8502 
  35   1.0000      -0.422193       -11.4885 
  36   1.0000      -0.411886       -11.2080 
  37   1.0000      -0.403474       -10.9791 
  38   1.0000      -0.389178       -10.5901 
  39   1.0000      -0.377746       -10.2790 
  40   1.0000      -0.365551        -9.9471 
  41   1.0000      -0.355536        -9.6746 
  42   1.0000      -0.346455        -9.4275 
  43   1.0000      -0.335964        -9.1421 
  44   1.0000      -0.333875        -9.0852 
  45   1.0000      -0.314837        -8.5672 
  46   1.0000      -0.282819        -7.6959 
  47   1.0000      -0.249204        -6.7812 
  48   1.0000      -0.228029        -6.2050 
  49   1.0000      -0.226977        -6.1764 
  50   1.0000      -0.223476        -6.0811 
  51   1.0000      -0.222503        -6.0546 
  52   1.0000      -0.220402        -5.9974 
  53   1.0000      -0.214421        -5.8347 
  54   1.0000      -0.201311        -5.4780 
  55   0.0000      -0.176345        -4.7986 
  56   0.0000      -0.082911        -2.2561 
  57   0.0000      -0.047544        -1.2937 
  58   0.0000      -0.034779        -0.9464 
  59   0.0000      -0.023805        -0.6478 
  60   0.0000      -0.010173        -0.2768 
  61   0.0000      -0.003133        -0.0853 
  62   0.0000       0.013406         0.3648 
  63   0.0000       0.030008         0.8166 
  64   0.0000       0.046160         1.2561 
  65   0.0000       0.049533         1.3479 
  66   0.0000       0.066320         1.8047 
  67   0.0000       0.073549         2.0014 
  68   0.0000       0.079948         2.1755 
  69   0.0000       0.083847         2.2816 
  70   0.0000       0.088823         2.4170 
  71   0.0000       0.098203         2.6722 
  72   0.0000       0.111557         3.0356 
  73   0.0000       0.117683         3.2023 
  74   0.0000       0.130803         3.5593 
  75   0.0000       0.138866         3.7787 
  76   0.0000       0.145875         3.9695 
  77   0.0000       0.156466         4.2577 
  78   0.0000       0.165605         4.5063 
  79   0.0000       0.171299         4.6613 
  80   0.0000       0.177525         4.8307 
  81   0.0000       0.188560         5.1310 
  82   0.0000       0.194412         5.2902 
  83   0.0000       0.200798         5.4640 
  84   0.0000       0.201356         5.4792 
  85   0.0000       0.210296         5.7225 
  86   0.0000       0.228294         6.2122 
  87   0.0000       0.234311         6.3759 
  88   0.0000       0.242576         6.6008 
  89   0.0000       0.247860         6.7446 
  90   0.0000       0.251225         6.8362 
  91   0.0000       0.257192         6.9986 
  92   0.0000       0.263880         7.1806 
  93   0.0000       0.271396         7.3851 
  94   0.0000       0.282626         7.6907 
  95   0.0000       0.287431         7.8214 
  96   0.0000       0.289549         7.8790 
  97   0.0000       0.296319         8.0632 
  98   0.0000       0.302910         8.2426 
  99   0.0000       0.307594         8.3701 
 100   0.0000       0.319538         8.6951 
 101   0.0000       0.327416         8.9094 
 102   0.0000       0.334885         9.1127 
 103   0.0000       0.343054         9.3350 
 104   0.0000       0.348359         9.4793 
 105   0.0000       0.352644         9.5959 
 106   0.0000       0.358388         9.7522 
 107   0.0000       0.374796        10.1987 
 108   0.0000       0.376685        10.2501 
 109   0.0000       0.381402        10.3785 
 110   0.0000       0.393280        10.7017 
 111   0.0000       0.398211        10.8359 
 112   0.0000       0.404223        10.9995 
 113   0.0000       0.408808        11.1242 
 114   0.0000       0.411154        11.1881 
 115   0.0000       0.415648        11.3104 
 116   0.0000       0.425336        11.5740 
 117   0.0000       0.434506        11.8235 
 118   0.0000       0.453956        12.3528 
 119   0.0000       0.455586        12.3971 
 120   0.0000       0.462895        12.5960 
 121   0.0000       0.475801        12.9472 
 122   0.0000       0.484093        13.1728 
 123   0.0000       0.493086        13.4175 
 124   0.0000       0.502566        13.6755 
 125   0.0000       0.511697        13.9240 
 126   0.0000       0.532085        14.4788 
 127   0.0000       0.536980        14.6120 
 128   0.0000       0.551663        15.0115 
 129   0.0000       0.554057        15.0767 
 130   0.0000       0.558243        15.1906 
 131   0.0000       0.572166        15.5694 
 132   0.0000       0.576689        15.6925 
 133   0.0000       0.579849        15.7785 
 134   0.0000       0.596449        16.2302 
 135   0.0000       0.607024        16.5180 
 136   0.0000       0.624650        16.9976 
 137   0.0000       0.643079        17.4991 
 138   0.0000       0.651014        17.7150 
 139   0.0000       0.658077        17.9072 
 140   0.0000       0.678986        18.4761 
 141   0.0000       0.695965        18.9382 
 142   0.0000       0.701246        19.0819 
 143   0.0000       0.727450        19.7949 
 144   0.0000       0.749184        20.3863 
 145   0.0000       0.750600        20.4249 
 146   0.0000       0.763077        20.7644 
 147   0.0000       0.769751        20.9460 
 148   0.0000       0.780505        21.2386 
 149   0.0000       0.799205        21.7475 
 150   0.0000       0.813659        22.1408 
 151   0.0000       0.825542        22.4642 
 152   0.0000       0.829280        22.5659 
 153   0.0000       0.840081        22.8598 
 154   0.0000       0.845919        23.0186 
 155   0.0000       0.857469        23.3329 
 156   0.0000       0.861911        23.4538 
 157   0.0000       0.873504        23.7692 
 158   0.0000       0.890544        24.2329 
 159   0.0000       0.902895        24.5690 
 160   0.0000       0.927540        25.2397 
 161   0.0000       0.933862        25.4117 
 162   0.0000       0.953052        25.9339 
 163   0.0000       0.968441        26.3526 
 164   0.0000       0.975113        26.5342 
 165   0.0000       0.980845        26.6902 
 166   0.0000       1.002728        27.2856 
 167   0.0000       1.019674        27.7467 
 168   0.0000       1.037866        28.2418 
 169   0.0000       1.050054        28.5734 
 170   0.0000       1.062702        28.9176 
 171   0.0000       1.076065        29.2812 
 172   0.0000       1.096949        29.8495 
 173   0.0000       1.109121        30.1807 
 174   0.0000       1.129865        30.7452 
 175   0.0000       1.135877        30.9088 
 176   0.0000       1.141121        31.0515 
 177   0.0000       1.154484        31.4151 
 178   0.0000       1.185713        32.2649 
 179   0.0000       1.197332        32.5811 
 180   0.0000       1.205478        32.8027 
 181   0.0000       1.211504        32.9667 
 182   0.0000       1.236029        33.6340 
 183   0.0000       1.250815        34.0364 
 184   0.0000       1.262958        34.3668 
 185   0.0000       1.276109        34.7247 
 186   0.0000       1.286429        35.0055 
 187   0.0000       1.302081        35.4314 
 188   0.0000       1.318454        35.8769 
 189   0.0000       1.347314        36.6623 
 190   0.0000       1.350278        36.7429 
 191   0.0000       1.369805        37.2743 
 192   0.0000       1.390695        37.8427 
 193   0.0000       1.399872        38.0925 
 194   0.0000       1.407635        38.3037 
 195   0.0000       1.423463        38.7344 
 196   0.0000       1.452494        39.5244 
 197   0.0000       1.468298        39.9544 
 198   0.0000       1.472798        40.0769 
 199   0.0000       1.492943        40.6250 
 200   0.0000       1.499516        40.8039 
 201   0.0000       1.516153        41.2566 
 202   0.0000       1.521950        41.4144 
 203   0.0000       1.542424        41.9715 
 204   0.0000       1.556157        42.3452 
 205   0.0000       1.568671        42.6857 
 206   0.0000       1.585760        43.1507 
 207   0.0000       1.602049        43.5940 
 208   0.0000       1.614461        43.9317 
 209   0.0000       1.619276        44.0627 
 210   0.0000       1.632290        44.4169 
 211   0.0000       1.642256        44.6881 
[...]
      pz      :     0.047769  p :     0.107853
      px      :     0.028050
      py      :     0.032034
 10 C s       :     2.744575  s :     2.744575
      pz      :     0.961447  p :     2.948282
      px      :     1.000603
      py      :     0.986232
      dz2     :     0.085330  d :     0.417278
      dxz     :     0.073442
      dyz     :     0.060933
      dx2y2   :     0.103465
      dxy     :     0.094109
      f0      :     0.004123  f :     0.043200
      f+1     :     0.005794
      f-1     :     0.005718
      f+2     :     0.006257
      f-2     :     0.007295
      f+3     :     0.006128
      f-3     :     0.007885
 11 C s       :     2.765462  s :     2.765462
      pz      :     0.940008  p :     2.931769
      px      :     0.992266
      py      :     0.999495
      dz2     :     0.051085  d :     0.389319
      dxz     :     0.066341
      dyz     :     0.065989
      dx2y2   :     0.087427
      dxy     :     0.118477
      f0      :     0.004301  f :     0.041366
      f+1     :     0.006842
      f-1     :     0.002634
      f+2     :     0.005956
      f-2     :     0.006336
      f+3     :     0.007085
      f-3     :     0.008212
 12 C s       :     2.733056  s :     2.733056
      pz      :     0.835844  p :     2.744901
      px      :     0.919369
      py      :     0.989688
      dz2     :     0.086811  d :     0.754677
      dxz     :     0.138093
      dyz     :     0.104776
      dx2y2   :     0.174853
      dxy     :     0.250143
      f0      :     0.007813  f :     0.101874
      f+1     :     0.014531
      f-1     :     0.005433
      f+2     :     0.016983
      f-2     :     0.014005
      f+3     :     0.016662
      f-3     :     0.026446
 13 O s       :     3.419945  s :     3.419945
      pz      :     1.321898  p :     4.370939
      px      :     1.418713
      py      :     1.630327
      dz2     :     0.008719  d :     0.066802
      dxz     :     0.019770
      dyz     :     0.004432
      dx2y2   :     0.017450
      dxy     :     0.016431
      f0      :     0.000449  f :     0.005672
      f+1     :     0.001020
      f-1     :     0.000058
      f+2     :     0.001179
      f-2     :     0.000777
      f+3     :     0.001072
      f-3     :     0.001117
 14 H s       :     0.654371  s :     0.654371
      pz      :     0.049397  p :     0.145580
      px      :     0.054660
      py      :     0.041522
 15 H s       :     0.789808  s :     0.789808
      pz      :     0.018645  p :     0.058975
      px      :     0.017652
      py      :     0.022679
 16 H s       :     0.795742  s :     0.795742
      pz      :     0.015477  p :     0.058295
      px      :     0.011959
      py      :     0.030859
 17 H s       :     0.796871  s :     0.796871
      pz      :     0.024773  p :     0.058306
      px      :     0.012276
      py      :     0.021257
 18 H s       :     0.802811  s :     0.802811
      pz      :     0.016005  p :     0.058232
      px      :     0.010034
      py      :     0.032193
 19 H s       :     0.796992  s :     0.796992
      pz      :     0.027392  p :     0.059046
      px      :     0.010475
      py      :     0.021179
 20 H s       :     0.771837  s :     0.771837
      pz      :     0.012810  p :     0.059715
      px      :     0.014584
      py      :     0.032321
 21 H s       :     0.769253  s :     0.769253
      pz      :     0.017078  p :     0.060364
      px      :     0.018308
      py      :     0.024977
 22 Cus       :     6.668351  s :     6.668351
      pz      :     4.254909  p :    12.404890
      px      :     4.105612
      py      :     4.044368
      dz2     :     1.893558  d :     9.858699
      dxz     :     1.979319
      dyz     :     1.996872
      dx2y2   :     1.981572
      dxy     :     2.007378
      f0      :     0.000043  f :     0.000181
      f+1     :     0.000047
      f-1     :     0.000037
      f+2     :     0.000023
      f-2     :     0.000018
      f+3     :     0.000006
      f-3     :     0.000006

SPIN
  0 O s       :     0.001011  s :     0.001011
      pz      :     0.043414  p :     0.061718
      px      :     0.017036
      py      :     0.001268
      dz2     :     0.000046  d :     0.004327
      dxz     :     0.000349
      dyz     :     0.002594
      dx2y2   :     0.000542
      dxy     :     0.000796
      f0      :     0.000073  f :     0.000298
      f+1     :     0.000007
      f-1     :    -0.000003
      f+2     :     0.000075
      f-2     :     0.000054
      f+3     :     0.000015
      f-3     :     0.000077
  1 C s       :     0.003439  s :     0.003439
      pz      :     0.091080  p :     0.132034
      px      :     0.036271
      py      :     0.004683
      dz2     :    -0.001813  d :     0.004447
      dxz     :    -0.001105
      dyz     :     0.005658
      dx2y2   :    -0.000107
      dxy     :     0.001813
      f0      :     0.000218  f :     0.000335
      f+1     :    -0.000480
      f-1     :     0.000023
      f+2     :     0.000075
      f-2     :     0.000217
      f+3     :    -0.000109
      f-3     :     0.000391
  2 C s       :    -0.001759  s :    -0.001759
      pz      :    -0.024441  p :    -0.039845
      px      :    -0.012023
      py      :    -0.003381
      dz2     :     0.006715  d :     0.031165
      dxz     :     0.005247
      dyz     :     0.009457
      dx2y2   :     0.007950
      dxy     :     0.001796
      f0      :     0.000748  f :     0.003759
      f+1     :     0.000970
      f-1     :     0.000067
      f+2     :     0.000567
      f-2     :     0.000173
      f+3     :     0.000787
      f-3     :     0.000447
  3 C s       :     0.004104  s :     0.004104
      pz      :     0.096323  p :     0.146991
      px      :     0.043645
      py      :     0.007022
      dz2     :    -0.000450  d :    -0.004418
      dxz     :    -0.000720
      dyz     :    -0.001621
      dx2y2   :    -0.000735
      dxy     :    -0.000892
      f0      :    -0.000233  f :    -0.000898
      f+1     :     0.000053
      f-1     :    -0.000128
      f+2     :    -0.000265
      f-2     :    -0.000148
      f+3     :    -0.000047
      f-3     :    -0.000129
  4 C s       :    -0.000489  s :    -0.000489
      pz      :     0.000620  p :    -0.000132
      px      :    -0.000087
      py      :    -0.000665
      dz2     :     0.004219  d :     0.017872
      dxz     :     0.007579
      dyz     :     0.000580
      dx2y2   :     0.005273
      dxy     :     0.000222
      f0      :     0.000087  f :     0.002013
      f+1     :     0.001434
      f-1     :     0.000110
      f+2     :     0.000060
      f-2     :     0.000154
      f+3     :     0.000139
      f-3     :     0.000029
  5 C s       :     0.003604  s :     0.003604
      pz      :     0.002503  p :     0.013081
      px      :     0.009787
      py      :     0.000790
      dz2     :    -0.000008  d :     0.001482
      dxz     :     0.001624
      dyz     :     0.000082
      dx2y2   :    -0.000268
      dxy     :     0.000052
      f0      :    -0.000004  f :     0.000124
      f+1     :     0.000087
      f-1     :     0.000004
      f+2     :     0.000009
      f-2     :     0.000031
      f+3     :    -0.000001
      f-3     :    -0.000002
  6 N s       :     0.000796  s :     0.000796
      pz      :     0.002806  p :     0.015876
      px      :     0.012820
      py      :     0.000250
      dz2     :     0.000175  d :     0.000426
      dxz     :    -0.000034
      dyz     :     0.000020
      dx2y2   :     0.000261
      dxy     :     0.000003
      f0      :    -0.000001  f :     0.000017
      f+1     :     0.000016
      f-1     :     0.000000
      f+2     :    -0.000005
      f-2     :     0.000004
      f+3     :     0.000007
      f-3     :    -0.000004
  7 H s       :     0.017980  s :     0.017980
      pz      :     0.000107  p :     0.000754
      px      :     0.000649
      py      :    -0.000002
  8 H s       :    -0.000189  s :    -0.000189
      pz      :     0.000080  p :     0.000473
      px      :     0.000351
      py      :     0.000042
  9 H s       :    -0.000343  s :    -0.000343
      pz      :     0.000096  p :     0.000502
      px      :     0.000386
      py      :     0.000020
 10 C s       :    -0.000850  s :    -0.000850
      pz      :    -0.003088  p :    -0.008821
      px      :    -0.004221
      py      :    -0.001513
      dz2     :     0.017081  d :     0.024629
      dxz     :     0.001501
      dyz     :     0.000737
      dx2y2   :     0.003582
      dxy     :     0.001727
      f0      :     0.000018  f :     0.002564
      f+1     :     0.000136
      f-1     :     0.001328
      f+2     :     0.000171
      f-2     :     0.000089
      f+3     :     0.000534
      f-3     :     0.000290
 11 C s       :     0.001996  s :     0.001996
      pz      :     0.062291  p :     0.085610
      px      :     0.020577
      py      :     0.002742
      dz2     :    -0.001006  d :    -0.000500
      dxz     :     0.000769
      dyz     :    -0.000003
      dx2y2   :     0.000264
      dxy     :    -0.000525
      f0      :    -0.000014  f :    -0.000310
      f+1     :    -0.000192
      f-1     :    -0.000008
      f+2     :     0.000032
      f-2     :    -0.000096
      f+3     :     0.000019
      f-3     :    -0.000052
 12 C s       :    -0.001467  s :    -0.001467
      pz      :     0.008981  p :     0.006822
      px      :    -0.000075
      py      :    -0.002084
      dz2     :     0.021556  d :     0.048319
      dxz     :     0.011869
      dyz     :     0.003640
      dx2y2   :     0.009842
      dxy     :     0.001411
      f0      :     0.000072  f :     0.006532
      f+1     :     0.002167
      f-1     :     0.001084
      f+2     :     0.001012
      f-2     :     0.000404
      f+3     :     0.001631
      f-3     :     0.000163
 13 O s       :     0.002415  s :     0.002415
      pz      :     0.160871  p :     0.219164
      px      :     0.045827
      py      :     0.012466
      dz2     :     0.000471  d :     0.000928
      dxz     :     0.000364
      dyz     :     0.000080
      dx2y2   :     0.000126
      dxy     :    -0.000114
      f0      :    -0.000031  f :    -0.000012
      f+1     :     0.000040
      f-1     :     0.000008
      f+2     :    -0.000037
      f-2     :     0.000005
      f+3     :     0.000018
      f-3     :    -0.000016
 14 H s       :    -0.001228  s :    -0.001228
      pz      :     0.001381  p :     0.002016
      px      :     0.000550
      py      :     0.000085
 15 H s       :     0.000790  s :     0.000790
      pz      :    -0.000581  p :    -0.001049
      px      :    -0.000323
      py      :    -0.000145
 16 H s       :     0.002929  s :     0.002929
      pz      :     0.000051  p :    -0.000090
      px      :    -0.000091
      py      :    -0.000051
 17 H s       :     0.002596  s :     0.002596
      pz      :     0.000039  p :    -0.000061
      px      :    -0.000091
      py      :    -0.000009
 18 H s       :     0.000328  s :     0.000328
      pz      :     0.000095  p :     0.000232
      px      :     0.000068
      py      :     0.000070
 19 H s       :     0.001044  s :     0.001044
      pz      :     0.000530  p :     0.000542
      px      :    -0.000010
      py      :     0.000023
 20 H s       :     0.000141  s :     0.000141
      pz      :    -0.000088  p :    -0.000187
      px      :    -0.000059
      py      :    -0.000040
 21 H s       :    -0.002553  s :    -0.002553
      pz      :     0.001391  p :     0.002116
      px      :     0.000528
      py      :     0.000197
 22 Cus       :     0.011509  s :     0.011509
      pz      :    -0.002056  p :     0.030940
      px      :     0.033519
      py      :    -0.000523
      dz2     :     0.091543  d :     0.142409
      dxz     :     0.027632
      dyz     :     0.004550
      dx2y2   :     0.017419
      dxy     :     0.001265
      f0      :    -0.000000  f :     0.000002
      f+1     :    -0.000000
      f-1     :    -0.000000
      f+2     :     0.000002
      f-2     :     0.000000
      f+3     :     0.000001
      f-3     :     0.000000


                      *****************************
                      * MAYER POPULATION ANALYSIS *
                      *****************************

  NA   - Mulliken gross atomic population
  ZA   - Total nuclear charge
  QA   - Mulliken gross atomic charge
  VA   - Mayer's total valence
  BVA  - Mayer's bonded valence
  FA   - Mayer's free valence

  ATOM       NA         ZA         QA         VA         BVA        FA
  0 O      8.2714     8.0000    -0.2714     2.2844     2.2798     0.0046
  1 C      5.7691     6.0000     0.2309     3.7002     3.6693     0.0309
  2 C      6.3074     6.0000    -0.3074     4.0245     4.0215     0.0030
  3 C      5.6400     6.0000     0.3600     3.4964     3.4602     0.0362
  4 C      6.2181     6.0000    -0.2181     3.8447     3.8443     0.0004
  5 C      6.1789     6.0000    -0.1789     3.9836     3.9833     0.0003
  6 N      7.4232     7.0000    -0.4232     3.0265     3.0261     0.0004
  7 H      0.8379     1.0000     0.1621     0.9381     0.9380     0.0001
  8 H      0.7910     1.0000     0.2090     0.9523     0.9523     0.0000
  9 H      0.7930     1.0000     0.2070     0.9531     0.9531     0.0000
 10 C      6.3271     6.0000    -0.3271     3.9940     3.9930     0.0010
 11 C      5.9950     6.0000     0.0050     3.6275     3.6157     0.0118
 12 C      5.9338     6.0000     0.0662     4.3900     4.3868     0.0033
 13 O      8.2625     8.0000    -0.2625     2.2569     2.1984     0.0585
 14 H      0.6884     1.0000     0.3116     0.9190     0.9190     0.0000
 15 H      0.9027     1.0000     0.0973     0.9870     0.9869     0.0000
 16 H      0.8966     1.0000     0.1034     0.9870     0.9869     0.0000
 17 H      0.9018     1.0000     0.0982     0.9878     0.9878     0.0000
 18 H      0.8739     1.0000     0.1261     0.9646     0.9646     0.0000
 19 H      0.8737     1.0000     0.1263     0.9833     0.9833     0.0000
 20 H      0.8724     1.0000     0.1276     0.9873     0.9873     0.0000
 21 H      0.8627     1.0000     0.1373     0.9784     0.9783     0.0000
 22 Cu    29.3794    29.0000    -0.3794     1.9662     1.9281     0.0381

  Mayer bond orders larger than 0.100000
B(  0-O ,  1-C ) :   1.3037 B(  0-O , 14-H ) :   0.8734 B(  1-C ,  2-C ) :   1.3581 
B(  1-C , 12-C ) :   0.9967 B(  2-C ,  3-C ) :   1.3506 B(  2-C , 15-H ) :   0.9230 
B(  2-C , 22-Cu) :   0.1280 B(  3-C ,  4-C ) :   0.9224 B(  3-C , 10-C ) :   1.1348 
B(  3-C , 22-Cu) :  -0.1306 B(  4-C ,  5-C ) :   0.9498 B(  4-C , 16-H ) :   0.9545 
B(  4-C , 17-H ) :   0.9420 B(  5-C ,  6-N ) :   1.0717 B(  5-C , 18-H ) :   0.9489 
B(  5-C , 19-H ) :   0.9512 B(  6-N ,  8-H ) :   0.9337 B(  6-N ,  9-H ) :   0.9348 
B(  7-H , 22-Cu) :   0.8799 B( 10-C , 11-C ) :   1.1708 B( 10-C , 20-H ) :   0.9499 
B( 10-C , 22-Cu) :   0.4833 B( 11-C , 12-C ) :   1.1346 B( 11-C , 21-H ) :   0.9643 
B( 11-C , 22-Cu) :   0.3136 B( 12-C , 13-O ) :   2.0185 B( 12-C , 22-Cu) :   0.1161 


-------
TIMINGS
-------

Total SCF time: 0 days 0 hours 0 min 13 sec 

Total time                  ....      13.898 sec
Sum of individual times     ....      12.910 sec  ( 92.9%)

Fock matrix formation       ....      10.154 sec  ( 73.1%)
  Split-RI-J                ....       3.042 sec  ( 30.0% of F)
  XC integration            ....       6.940 sec  ( 68.3% of F)
    Basis function eval.    ....       1.177 sec  ( 17.0% of XC)
    Density eval.           ....       2.862 sec  ( 41.2% of XC)
    XC-Functional eval.     ....       0.133 sec  (  1.9% of XC)
    XC-Potential eval.      ....       1.869 sec  ( 26.9% of XC)
Diagonalization             ....       1.312 sec  (  9.4%)
Density matrix formation    ....       0.052 sec  (  0.4%)
Population analysis         ....       0.092 sec  (  0.7%)
Initial guess               ....       0.133 sec  (  1.0%)
Orbital Transformation      ....       0.000 sec  (  0.0%)
Orbital Orthonormalization  ....       0.105 sec  (  0.8%)
DIIS solution               ....       0.495 sec  (  3.6%)
Grid generation             ....       0.672 sec  (  4.8%)

Maximum memory used throughout the entire SCF-calculation: 61.0 MB


-------------------------------------------------------------------------------
                          DFT DISPERSION CORRECTION                            
                                                                               
                              DFTD3 V3.1  Rev 1                                
                          USING Becke-Johnson damping                          
-------------------------------------------------------------------------------
The PBE functional is recognized
Active option DFTDOPT                   ...         4   

molecular C6(AA) [au] = 6350.472333 


            DFT-D V3
 parameters
 s6 scaling factor         :     1.0000 
 a1 scaling factor         :     0.4289 
 s8 scaling factor         :     0.7875 
 a2 scaling factor         :     4.4407 
 ad hoc parameters k1-k3   :    16.0000     1.3333    -4.0000 

 Edisp/kcal,au: -17.003093734591  -0.027096151729 
 E6   /kcal   : -11.659410187 
 E8   /kcal   :  -5.343683548 
 % E8         :  31.427713280 

-------------------------   ----------------
Dispersion correction           -0.027096152
-------------------------   ----------------


-------------------------   --------------------
FINAL SINGLE POINT ENERGY     -2156.522027568623
-------------------------   --------------------

                                *** OPTIMIZATION RUN DONE ***

                            ***************************************
                            *     ORCA property calculations      *
                            ***************************************

                                    ---------------------
                                    Active property flags
                                    ---------------------
   (+) Dipole Moment


------------------------------------------------------------------------------
                       ORCA ELECTRIC PROPERTIES CALCULATION
------------------------------------------------------------------------------

Dipole Moment Calculation                       ... on
Quadrupole Moment Calculation                   ... off
Polarizability Calculation                      ... off
GBWName                                         ... 3_M0003.gbw
Electron density                                ... 3_M0003.scfp
The origin for moment calculation is the CENTER OF MASS  = ( 0.723976, -0.059263  1.275173)

-------------
DIPOLE MOMENT
-------------
                                X             Y             Z
Electronic contribution:     11.91566       1.41938      14.00161
Nuclear contribution   :    -13.22301      -1.36454     -16.66107
                        -----------------------------------------
Total Dipole Moment    :     -1.30735       0.05484      -2.65946
                        -----------------------------------------
Magnitude (a.u.)       :      2.96393
Magnitude (Debye)      :      7.53371



--------------------
Rotational spectrum 
--------------------
 
Rotational constants in cm-1:     0.038257     0.016968     0.013734 
Rotational constants in MHz :  1146.919262   508.698270   411.728369 

 Dipole components along the rotational axes: 
x,y,z [a.u.] :    -2.028573    -1.889239    -1.049070 
x,y,z [Debye]:    -5.156222    -4.802064    -2.666524 

 

Timings for individual modules:

Sum of individual times         ...     2085.522 sec (=  34.759 min)
GTO integral calculation        ...       82.823 sec (=   1.380 min)   4.0 %
SCF iterations                  ...     1495.752 sec (=  24.929 min)  71.7 %
SCF Gradient evaluation         ...      502.654 sec (=   8.378 min)  24.1 %
Geometry relaxation             ...        4.293 sec (=   0.072 min)   0.2 %
                             ****ORCA TERMINATED NORMALLY****
TOTAL RUN TIME: 0 days 0 hours 35 minutes 29 seconds 743 msec
