
                                 *****************
                                 * O   R   C   A *
                                 *****************

                                            #,                                       
                                            ###                                      
                                            ####                                     
                                            #####                                    
                                            ######                                   
                                           ########,                                 
                                     ,,################,,,,,                         
                               ,,#################################,,                 
                          ,,##########################################,,             
                       ,#########################################, ''#####,          
                    ,#############################################,,   '####,        
                  ,##################################################,,,,####,       
                ,###########''''           ''''###############################       
              ,#####''   ,,,,##########,,,,          '''####'''          '####       
            ,##' ,,,,###########################,,,                        '##       
           ' ,,###''''                  '''############,,,                           
         ,,##''                                '''############,,,,        ,,,,,,###''
      ,#''                                            '''#######################'''  
     '                                                          ''''####''''         
             ,#######,   #######,   ,#######,      ##                                
            ,#'     '#,  ##    ##  ,#'     '#,    #''#        ######   ,####,        
            ##       ##  ##   ,#'  ##            #'  '#       #        #'  '#        
            ##       ##  #######   ##           ,######,      #####,   #    #        
            '#,     ,#'  ##    ##  '#,     ,#' ,#      #,         ##   #,  ,#        
             '#######'   ##     ##  '#######'  #'      '#     #####' # '####'        



                  #######################################################
                  #                        -***-                        #
                  #          Department of theory and spectroscopy      #
                  #    Directorship and core code : Frank Neese         #
                  #        Max Planck Institute fuer Kohlenforschung    #
                  #                Kaiser Wilhelm Platz 1               #
                  #                 D-45470 Muelheim/Ruhr               #
                  #                      Germany                        #
                  #                                                     #
                  #                  All rights reserved                #
                  #                        -***-                        #
                  #######################################################


                         Program Version 5.0.2 -  RELEASE  -


 With contributions from (in alphabetic order):
   Daniel Aravena         : Magnetic Suceptibility
   Michael Atanasov       : Ab Initio Ligand Field Theory (pilot matlab implementation)
   Alexander A. Auer      : GIAO ZORA, VPT2 properties, NMR spectrum
   Ute Becker             : Parallelization
   Giovanni Bistoni       : ED, misc. LED, open-shell LED, HFLD
   Martin Brehm           : Molecular dynamics
   Dmytro Bykov           : SCF Hessian
   Vijay G. Chilkuri      : MRCI spin determinant printing, contributions to CSF-ICE
   Dipayan Datta          : RHF DLPNO-CCSD density
   Achintya Kumar Dutta   : EOM-CC, STEOM-CC
   Dmitry Ganyushin       : Spin-Orbit,Spin-Spin,Magnetic field MRCI
   Miquel Garcia          : C-PCM and meta-GGA Hessian, CC/C-PCM, Gaussian charge scheme
   Yang Guo               : DLPNO-NEVPT2, F12-NEVPT2, CIM, IAO-localization
   Andreas Hansen         : Spin unrestricted coupled pair/coupled cluster methods
   Benjamin Helmich-Paris : MC-RPA, TRAH-SCF, COSX integrals
   Lee Huntington         : MR-EOM, pCC
   Robert Izsak           : Overlap fitted RIJCOSX, COSX-SCS-MP3, EOM
   Marcus Kettner         : VPT2
   Christian Kollmar      : KDIIS, OOCD, Brueckner-CCSD(T), CCSD density, CASPT2, CASPT2-K
   Simone Kossmann        : Meta GGA functionals, TD-DFT gradient, OOMP2, MP2 Hessian
   Martin Krupicka        : Initial AUTO-CI
   Lucas Lang             : DCDCAS
   Marvin Lechner         : AUTO-CI (C++ implementation), FIC-MRCC
   Dagmar Lenk            : GEPOL surface, SMD
   Dimitrios Liakos       : Extrapolation schemes; Compound Job, initial MDCI parallelization
   Dimitrios Manganas     : Further ROCIS development; embedding schemes
   Dimitrios Pantazis     : SARC Basis sets
   Anastasios Papadopoulos: AUTO-CI, single reference methods and gradients
   Taras Petrenko         : DFT Hessian,TD-DFT gradient, ASA, ECA, R-Raman, ABS, FL, XAS/XES, NRVS
   Peter Pinski           : DLPNO-MP2, DLPNO-MP2 Gradient
   Christoph Reimann      : Effective Core Potentials
   Marius Retegan         : Local ZFS, SOC
   Christoph Riplinger    : Optimizer, TS searches, QM/MM, DLPNO-CCSD(T), (RO)-DLPNO pert. Triples
   Tobias Risthaus        : Range-separated hybrids, TD-DFT gradient, RPA, STAB
   Michael Roemelt        : Original ROCIS implementation
   Masaaki Saitow         : Open-shell DLPNO-CCSD energy and density
   Barbara Sandhoefer     : DKH picture change effects
   Avijit Sen             : IP-ROCIS
   Kantharuban Sivalingam : CASSCF convergence, NEVPT2, FIC-MRCI
   Bernardo de Souza      : ESD, SOC TD-DFT
   Georgi Stoychev        : AutoAux, RI-MP2 NMR, DLPNO-MP2 response
   Willem Van den Heuvel  : Paramagnetic NMR
   Boris Wezisla          : Elementary symmetry handling
   Frank Wennmohs         : Technical directorship


 We gratefully acknowledge several colleagues who have allowed us to
 interface, adapt or use parts of their codes:
   Stefan Grimme, W. Hujo, H. Kruse, P. Pracht,  : VdW corrections, initial TS optimization,
                  C. Bannwarth, S. Ehlert          DFT functionals, gCP, sTDA/sTD-DF
   Ed Valeev, F. Pavosevic, A. Kumar             : LibInt (2-el integral package), F12 methods
   Garnet Chan, S. Sharma, J. Yang, R. Olivares  : DMRG
   Ulf Ekstrom                                   : XCFun DFT Library
   Mihaly Kallay                                 : mrcc  (arbitrary order and MRCC methods)
   Jiri Pittner, Ondrej Demel                    : Mk-CCSD
   Frank Weinhold                                : gennbo (NPA and NBO analysis)
   Christopher J. Cramer and Donald G. Truhlar   : smd solvation model
   Lars Goerigk                                  : TD-DFT with DH, B97 family of functionals
   V. Asgeirsson, H. Jonsson                     : NEB implementation
   FAccTs GmbH                                   : IRC, NEB, NEB-TS, DLPNO-Multilevel, CI-OPT
                                                   MM, QMMM, 2- and 3-layer-ONIOM, Crystal-QMMM,
                                                   LR-CPCM, SF, NACMEs, symmetry and pop. for TD-DFT,
                                                   nearIR, NL-DFT gradient (VV10), updates on ESD,
                                                   ML-optimized integration grids
   S Lehtola, MJT Oliveira, MAL Marques          : LibXC Library
   Liviu Ungur et al                             : ANISO software


 Your calculation uses the libint2 library for the computation of 2-el integrals
 For citations please refer to: http://libint.valeyev.net

 Your ORCA version has been built with support for libXC version: 5.1.0
 For citations please refer to: https://tddft.org/programs/libxc/

 This ORCA versions uses:
   CBLAS   interface :  Fast vector & matrix operations
   LAPACKE interface :  Fast linear algebra routines
   SCALAPACK package :  Parallel linear algebra routines
   Shared memory     :  Shared parallel matrices
   BLAS/LAPACK       :  OpenBLAS 0.3.15  USE64BITINT DYNAMIC_ARCH NO_AFFINITY Haswell SINGLE_THREADED
        Core in use  :  Haswell
   Copyright (c) 2011-2014, The OpenBLAS Project


Your calculation utilizes the atom-pairwise dispersion correction
with the Becke-Johnson damping scheme (D3BJ)
Cite in your paper:
S.Grimme, S.Ehrlich, L.Goerigk, J Comput Chem, (2011), 32, 1456–1465 
S.Grimme, J.Antony, S.Ehrlich and H.Krieg, J.Chem.Phys., 132, (2010), 154104 
   

================================================================================

----- Orbital basis set information -----
Your calculation utilizes the basis: def2-TZVP
   F. Weigend and R. Ahlrichs, Phys. Chem. Chem. Phys. 7, 3297 (2005).

----- AuxJ basis set information -----
Your calculation utilizes the auxiliary basis: def2/J
   F. Weigend, Phys. Chem. Chem. Phys. 8, 1057 (2006).

================================================================================
                                        WARNINGS
                       Please study these warnings very carefully!
================================================================================


WARNING: your system is open-shell and RHF/RKS was chosen
  ===> : WILL SWITCH to UHF/UKS


WARNING: The environment variable RSH_COMMAND is not set!
  ===> : All Displacements for the Numerical Hessian or Gradient calculation
         will be started on localhost

INFO   : the flag for use of the SHARK integral package has been found!

Your calculation utilizes the atom-pairwise dispersion correction
with the Becke-Johnson damping scheme (D3BJ)
Cite in your paper:
S.Grimme, S.Ehrlich, L.Goerigk, J Comput Chem, (2011), 32, 1456–1465 
S.Grimme, J.Antony, S.Ehrlich and H.Krieg, J.Chem.Phys., 132, (2010), 154104 
   

================================================================================

----- Orbital basis set information -----
Your calculation utilizes the basis: def2-TZVP
   F. Weigend and R. Ahlrichs, Phys. Chem. Chem. Phys. 7, 3297 (2005).

----- AuxJ basis set information -----
Your calculation utilizes the auxiliary basis: def2/J
   F. Weigend, Phys. Chem. Chem. Phys. 8, 1057 (2006).

================================================================================
                                        WARNINGS
                       Please study these warnings very carefully!
================================================================================


WARNING: MOInp is set but Guess=PModel. MOInp will be ignored!
         To read the initial guess from a file you must also specify
         'MORead' in the simple input or 'Guess MORead' in the %scf block


WARNING: The environment variable RSH_COMMAND is not set!
  ===> : All Displacements for the Numerical Hessian or Gradient calculation
         will be started on localhost

INFO   : the flag for use of the SHARK integral package has been found!

Your calculation utilizes the atom-pairwise dispersion correction
with the Becke-Johnson damping scheme (D3BJ)
Cite in your paper:
S.Grimme, S.Ehrlich, L.Goerigk, J Comput Chem, (2011), 32, 1456–1465 
S.Grimme, J.Antony, S.Ehrlich and H.Krieg, J.Chem.Phys., 132, (2010), 154104 
   

================================================================================

----- Orbital basis set information -----
Your calculation utilizes the basis: def2-TZVP
   F. Weigend and R. Ahlrichs, Phys. Chem. Chem. Phys. 7, 3297 (2005).

----- AuxJ basis set information -----
Your calculation utilizes the auxiliary basis: def2/J
   F. Weigend, Phys. Chem. Chem. Phys. 8, 1057 (2006).

================================================================================
                                        WARNINGS
                       Please study these warnings very carefully!
================================================================================


WARNING: MOInp is set but Guess=PModel. MOInp will be ignored!
         To read the initial guess from a file you must also specify
         'MORead' in the simple input or 'Guess MORead' in the %scf block


WARNING: The environment variable RSH_COMMAND is not set!
  ===> : All Displacements for the Numerical Hessian or Gradient calculation
         will be started on localhost

INFO   : the flag for use of the SHARK integral package has been found!

Your calculation utilizes the atom-pairwise dispersion correction
with the Becke-Johnson damping scheme (D3BJ)
Cite in your paper:
S.Grimme, S.Ehrlich, L.Goerigk, J Comput Chem, (2011), 32, 1456–1465 
S.Grimme, J.Antony, S.Ehrlich and H.Krieg, J.Chem.Phys., 132, (2010), 154104 
   

================================================================================

----- Orbital basis set information -----
Your calculation utilizes the basis: def2-TZVP
   F. Weigend and R. Ahlrichs, Phys. Chem. Chem. Phys. 7, 3297 (2005).

----- AuxJ basis set information -----
Your calculation utilizes the auxiliary basis: def2/J
   F. Weigend, Phys. Chem. Chem. Phys. 8, 1057 (2006).

================================================================================
                                        WARNINGS
                       Please study these warnings very carefully!
================================================================================


WARNING: MOInp is set but Guess=PModel. MOInp will be ignored!
         To read the initial guess from a file you must also specify
         'MORead' in the simple input or 'Guess MORead' in the %scf block


WARNING: The environment variable RSH_COMMAND is not set!
  ===> : All Displacements for the Numerical Hessian or Gradient calculation
         will be started on localhost

INFO   : the flag for use of the SHARK integral package has been found!

================================================================================
                                       INPUT FILE
================================================================================
NAME = ex.inp
|  1> ! PBE D3 def2-TZVP opt numfreq PModel NOAUTOSTART
|  2> %pal nprocs=16 end
|  3> %geom maxiter=150 end
|  4> %base "neutral"
|  5> *xyz 0 2
|  6>   C   0.05151030651785     -0.78265026121129     -0.62003621270317
|  7>   C   -1.14684861065681      1.58831487089140      0.22434165362483
|  8>   C   -1.27294345243348     -0.78544627292866     -0.19586562192394
|  9>   C   0.80452618584517      0.40225667857843     -0.62160379985104
| 10>   C   0.18574162822261      1.58406222261011     -0.19607460355947
| 11>   C   -1.88613478776132      0.40655208754698      0.23247461618572
| 12>   O   -3.18752358846117      0.40922751022149      0.64587145121896
| 13>   O   -2.07093039477904     -1.90768700980278     -0.16163033359838
| 14>   C   2.26198989399812      0.36343035607615     -1.01093645851966
| 15>   C   3.19249358672742      0.21908319312203      0.19903599263247
| 16>   N   2.83152020529196     -0.98011657330803      0.99647668616067
| 17>   H   0.52047975915281     -1.72164451804196     -0.94237754924203
| 18>   H   -1.63386514641539      2.50880820931423      0.54848632512554
| 19>   H   0.74749819228407      2.52069918632213     -0.20029658410996
| 20>   H   -3.51419522918949     -0.50816011684481      0.57089823732220
| 21>   H   -1.54297283746147     -2.68060174888050     -0.42820095694387
| 22>   H   2.54020167158847      1.28294224315929     -1.54856879407963
| 23>   H   2.44417796592426     -0.48638385213532     -1.68822612544785
| 24>   H   4.23117497900026      0.09514195917835     -0.13931016832128
| 25>   H   3.14039061387464      1.12928957292619      0.82156302532256
| 26>   H   1.88196936688811     -0.85730072553743      1.36860405882403
| 27>   H   3.45837516435725     -1.07307926353826      1.80145873594515
| 28>   Cu  2.79467885448518     -2.80596664371773      0.03172156093816
| 29> *
| 30> 
| 31> 
| 32> $new_job
| 33> 
| 34> ! PBE D3 def2-TZVP opt numfreq PModel NOAUTOSTART
| 35> %pal nprocs=16 end
| 36> %geom maxiter=150 end
| 37> %base "protonated"
| 38> *xyz 1 2
| 39>   C   1.07898732660029      1.51352516788469     -0.58761166958128
| 40>   C   0.02441664702660     -0.73254036383134      0.72520568760312
| 41>   C   1.88533508420575      0.39041301556029     -0.37237808214902
| 42>   C   -0.27623638815345      1.50797941643193     -0.14983085632504
| 43>   C   -0.80005269372999      0.38046688226518      0.52366540064205
| 44>   C   1.35041168115878     -0.74656165951909      0.28412300241693
| 45>   O   3.19218468862372      0.27884724934216     -0.72754166024440
| 46>   O   2.11149379386599     -1.83320793665416      0.51211013937218
| 47>   C   -2.23818786416363      0.36306062250564      0.98599372254936
| 48>   C   -3.12907562219875     -0.62480765918067      0.22910947734060
| 49>   N   -3.16305392449435     -0.30782378018467     -1.24655391551978
| 50>   H   -2.14037839171934     -0.29170885643675     -1.64776834425088
| 51>   H   -3.72638223294196     -0.98207501665580     -1.77839966286846
| 52>   H   -3.54079600112255      0.63427971428122     -1.41622250425328
| 53>   H   1.51064766013191      2.42476946042783     -1.00864288970979
| 54>   H   -0.33922207507672     -1.61694814707017      1.25260793443716
| 55>   H   -0.85294936409711      2.43416201964787     -0.19688403026259
| 56>   H   3.52315857249401      1.10234996111497     -1.12857353964233
| 57>   H   3.01300407869935     -1.66723480904354      0.16927210545052
| 58>   H   -2.66828483005801      1.37514665266830      0.92310546869530
| 59>   H   -2.29195654782142      0.07345714778403      2.04731037357100
| 60>   H   -2.75256277259489     -1.65252973371989      0.31336075976874
| 61>   H   -4.16035827429662     -0.59798305176550      0.60402658350572
| 62>   Cu  -0.39014782133756      0.76373229214748     -2.17810362154583
| 63> *
| 64> 
| 65> 
| 66> $new_job
| 67> 
| 68> ! PBE D3 def2-TZVP opt numfreq PModel NOAUTOSTART
| 69> %pal nprocs=16 end
| 70> %geom maxiter=150 end
| 71> %base "deprotonated"
| 72> *xyz -1 2
| 73>   O   2.32400838134809     -1.80485572590562     -0.17050849630255
| 74>   O   3.18367361810849      0.53112489155332     -0.60411285323431
| 75>   N   -2.95607888936990      0.35894358092313     -1.26126475971509
| 76>   C   -2.18792496380110     -0.13607835290324      1.07582417070768
| 77>   C   -0.75060446030147      0.07917758678959      0.68326964766942
| 78>   C   -3.06243502366001     -0.57571742862758     -0.11036929610486
| 79>   C   0.11056924011589     -1.03082358581373      0.47634720429087
| 80>   C   -0.24972611069098      1.36384774114497      0.43665708036757
| 81>   C   1.40722724229463     -0.82397439262430      0.04661531313833
| 82>   C   1.06700364582456      1.58342841628268     -0.00295289791322
| 83>   C   1.95319690446491      0.49913951871084     -0.21668203283720
| 84>   H   -2.60207405588884      0.80030537373093      1.49229647188496
| 85>   H   -2.28153756345723     -0.90270323502259      1.86747511823861
| 86>   H   -4.12525266333676     -0.65274476452587      0.16882488402355
| 87>   H   -2.74096807706201     -1.56375089112637     -0.46963966961468
| 88>   H   -0.24308458261420     -2.05055887230801      0.66324920332897
| 89>   H   -0.90471862172543      2.22599080950787      0.61165517369394
| 90>   H   1.43308148973821      2.59913947819014     -0.17467611746020
| 91>   H   -1.95057801298729      0.45192330398739     -1.47456003905072
| 92>   H   -3.23541339691295      1.29659879064346     -0.94728789461043
| 93>   H   3.09427407732060     -1.19674069503384     -0.45656574831236
| 94>   Cu  -4.08984874840718     -0.05444064157314     -2.88607444418827
| 95> *
| 96> 
| 97> 
| 98> $new_job
| 99> 
|100> ! PBE D3 def2-TZVP opt numfreq PModel NOAUTOSTART
|101> %pal nprocs=16 end
|102> %geom maxiter=150 end
|103> %base "zwitterione"
|104> *xyz 0 2
|105>   O   2.24594608118478     -2.68693371519580      0.31559973917755
|106>   C   1.71282334429423     -1.45533993171194      0.24993121241835
|107>   C   0.54480399702392     -1.16516759054979     -0.44832275711968
|108>   C   0.02787613064923      0.13977319879306     -0.52432635404772
|109>   C   -1.25642376261149      0.41744036440469     -1.23990144043379
|110>   C   -2.49333352661513      0.28011505454580     -0.30116690216440
|111>   N   -3.78105266454003      0.56117448794867     -0.91182972321232
|112>   H   -0.35268009356975      0.20171850958248      3.50159934896793
|113>   H   -3.82462587711327      1.52017603095100     -1.26088335666462
|114>   H   -3.95844601621450     -0.05837894176325     -1.70449322746277
|115>   C   0.70874058224933      1.18745051074278      0.16294267743980
|116>   C   1.86860115505197      0.92421133972889      0.91649825520956
|117>   C   2.48913116825182     -0.40170001469211      0.94193505332326
|118>   O   3.58468027735763     -0.63384082401522      1.47878837413930
|119>   H   1.67272187847602     -3.31094140210122     -0.16859706476011
|120>   H   0.01551760201558     -1.97445914534994     -0.96319373614290
|121>   H   -1.24640350601086      1.43912589072602     -1.65191634030200
|122>   H   -1.38123478437598     -0.27942859022807     -2.08370247179646
|123>   H   -2.51185932559664     -0.74154779523156      0.10827151293533
|124>   H   -2.35726988905262      0.95129019111289      0.56223314603312
|125>   H   0.36205330561974      2.21624734239731      0.03524032840549
|126>   H   2.45538058606567      1.73400619828725      1.35339661332565
|127>   Cu  0.16772253046042      0.59228716761808      2.13239786973140
|128> *
|129> 
|130>                          ****END OF INPUT****
================================================================================


                 $$$$$$$$$$$$$$$$$$$$$$$$$$$$$$$$$$$$$$$$$$$$$$ 
                 $ THERE ARE  4 JOBS TO BE PROCESSED THIS RUN $
                 $$$$$$$$$$$$$$$$$$$$$$$$$$$$$$$$$$$$$$$$$$$$$$ 




                 $$$$$$$$$$$$$$$$  JOB NUMBER  1 $$$$$$$$$$$$$$


                       *****************************
                       * Geometry Optimization Run *
                       *****************************

Geometry optimization settings:
Update method            Update   .... BFGS
Choice of coordinates    CoordSys .... Z-matrix Internals
Initial Hessian          InHess   .... Almoef's Model

Convergence Tolerances:
Energy Change            TolE     ....  5.0000e-06 Eh
Max. Gradient            TolMAXG  ....  3.0000e-04 Eh/bohr
RMS Gradient             TolRMSG  ....  1.0000e-04 Eh/bohr
Max. Displacement        TolMAXD  ....  4.0000e-03 bohr
RMS Displacement         TolRMSD  ....  2.0000e-03 bohr
Strict Convergence                ....  False
------------------------------------------------------------------------------
                        ORCA OPTIMIZATION COORDINATE SETUP
------------------------------------------------------------------------------

The optimization will be done in new redundant internal coordinates
Making redundant internal coordinates   ...  (new redundants) done
Evaluating the initial hessian          ...  (Almloef) done
Evaluating the coordinates              ...  done
Calculating the B-matrix                .... done
Calculating the G-matrix                .... done
Diagonalizing the G-matrix              .... done
Small eigenvalue found = 1.202e-02
Small eigenvalue found = 2.507e-02
The first mode is                       ....   50
The number of degrees of freedom        ....   63

    -----------------------------------------------------------------
                    Redundant Internal Coordinates


    -----------------------------------------------------------------
         Definition                    Initial Value    Approx d2E/dq
    -----------------------------------------------------------------
      1. B(C   2,C   0)                  1.3907         0.623143   
      2. B(C   3,C   0)                  1.4039         0.593612   
      3. B(C   4,C   3)                  1.4002         0.601760   
      4. B(C   4,C   1)                  1.3973         0.608170   
      5. B(C   5,C   2)                  1.4072         0.586442   
      6. B(C   5,C   1)                  1.3940         0.615733   
      7. B(O   6,C   5)                  1.3655         0.612360   
      8. B(O   7,C   2)                  1.3775         0.585992   
      9. B(C   8,C   3)                  1.5091         0.403434   
     10. B(C   9,C   8)                  1.5332         0.369207   
     11. B(N  10,C   9)                  1.4847         0.395193   
     12. B(H  11,C   0)                  1.0980         0.349705   
     13. B(H  12,C   1)                  1.0907         0.359214   
     14. B(H  13,C   4)                  1.0922         0.357216   
     15. B(H  14,O   6)                  0.9767         0.489023   
     16. B(H  15,O   7)                  0.9732         0.495271   
     17. B(H  16,C   8)                  1.1009         0.345982   
     18. B(H  17,C   8)                  1.1019         0.344746   
     19. B(H  18,C   9)                  1.0994         0.347867   
     20. B(H  19,C   9)                  1.1040         0.342097   
     21. B(H  20,N  10)                  1.0272         0.406162   
     22. B(H  21,N  10)                  1.0245         0.410273   
     23. B(Cu 22,N  10)                  2.0654         0.473650   
     24. A(C   2,C   0,C   3)          120.8532         0.431077   
     25. A(C   3,C   0,H  11)          119.4962         0.348597   
     26. A(C   2,C   0,H  11)          119.6429         0.351465   
     27. A(C   4,C   1,H  12)          121.1864         0.351614   
     28. A(C   5,C   1,H  12)          118.4857         0.352350   
     29. A(C   4,C   1,C   5)          120.3275         0.432028   
     30. A(C   0,C   2,C   5)          120.4050         0.430137   
     31. A(C   5,C   2,O   7)          115.4744         0.422656   
     32. A(C   0,C   2,O   7)          124.1204         0.427272   
     33. A(C   4,C   3,C   8)          121.7980         0.399977   
     34. A(C   0,C   3,C   8)          119.7748         0.399019   
     35. A(C   0,C   3,C   4)          118.3573         0.428384   
     36. A(C   1,C   4,C   3)          121.0270         0.430250   
     37. A(C   3,C   4,H  13)          119.6918         0.350655   
     38. A(C   1,C   4,H  13)          119.2788         0.351283   
     39. A(C   1,C   5,O   6)          120.3684         0.429735   
     40. A(C   1,C   5,C   2)          119.0273         0.429215   
     41. A(C   2,C   5,O   6)          120.6039         0.425996   
     42. A(C   5,O   6,H  14)          107.0789         0.365463   
     43. A(C   2,O   7,H  15)          109.0232         0.363511   
     44. A(C   3,C   8,C   9)          112.6416         0.367426   
     45. A(C   3,C   8,H  17)          109.7623         0.326100   
     46. A(C   9,C   8,H  16)          108.0995         0.321578   
     47. A(C   3,C   8,H  16)          110.4005         0.326292   
     48. A(C   9,C   8,H  17)          108.1877         0.321390   
     49. A(H  16,C   8,H  17)          107.5907         0.287058   
     50. A(C   8,C   9,H  19)          109.8010         0.320985   
     51. A(N  10,C   9,H  18)          107.6945         0.323531   
     52. A(C   8,C   9,H  18)          109.9452         0.321864   
     53. A(N  10,C   9,H  19)          110.5851         0.322645   
     54. A(C   8,C   9,N  10)          110.6320         0.363848   
     55. A(H  18,C   9,H  19)          108.1244         0.286955   
     56. A(H  21,N  10,Cu 22)          107.3207         0.379224   
     57. A(H  20,N  10,Cu 22)          104.9763         0.378564   
     58. A(C   9,N  10,Cu 22)          117.8712         0.422883   
     59. A(H  20,N  10,H  21)          106.9660         0.297679   
     60. A(C   9,N  10,H  21)          110.2768         0.329619   
     61. A(C   9,N  10,H  20)          108.8293         0.329071   
     62. D(O   7,C   2,C   0,C   3)   -179.7389         0.026886   
     63. D(O   7,C   2,C   0,H  11)     -0.7593         0.026886   
     64. D(C   5,C   2,C   0,C   3)      0.4262         0.026886   
     65. D(C   5,C   2,C   0,H  11)    179.4057         0.026886   
     66. D(C   8,C   3,C   0,H  11)     -2.4974         0.024265   
     67. D(C   4,C   3,C   0,C   2)     -0.5302         0.024265   
     68. D(C   8,C   3,C   0,C   2)    176.4837         0.024265   
     69. D(C   4,C   3,C   0,H  11)   -179.5113         0.024265   
     70. D(C   1,C   4,C   3,C   8)   -176.7664         0.024971   
     71. D(H  13,C   4,C   1,H  12)     -0.0626         0.025536   
     72. D(C   1,C   4,C   3,C   0)      0.1839         0.024971   
     73. D(C   3,C   4,C   1,C   5)      0.2699         0.025536   
     74. D(H  13,C   4,C   1,C   5)    179.6957         0.025536   
     75. D(H  13,C   4,C   3,C   0)   -179.2395         0.024971   
     76. D(C   3,C   4,C   1,H  12)   -179.4883         0.025536   
     77. D(H  13,C   4,C   3,C   8)      3.8102         0.024971   
     78. D(O   6,C   5,C   2,O   7)     -0.0514         0.023653   
     79. D(C   1,C   5,C   2,O   7)   -179.8142         0.023653   
     80. D(O   6,C   5,C   1,H  12)     -0.3770         0.026213   
     81. D(O   6,C   5,C   1,C   4)    179.8583         0.026213   
     82. D(C   1,C   5,C   2,C   0)      0.0345         0.023653   
     83. D(O   6,C   5,C   2,C   0)    179.7973         0.023653   
     84. D(C   2,C   5,C   1,H  12)    179.3864         0.026213   
     85. D(C   2,C   5,C   1,C   4)     -0.3783         0.026213   
     86. D(H  14,O   6,C   5,C   2)      0.0763         0.027463   
     87. D(H  14,O   6,C   5,C   1)    179.8360         0.027463   
     88. D(H  15,O   7,C   2,C   5)   -176.9277         0.025005   
     89. D(H  15,O   7,C   2,C   0)      3.2300         0.025005   
     90. D(H  16,C   8,C   3,C   0)    145.1862         0.012070   
     91. D(C   9,C   8,C   3,C   4)     83.0425         0.012070   
     92. D(C   9,C   8,C   3,C   0)    -93.8656         0.012070   
     93. D(H  17,C   8,C   3,C   4)   -156.3456         0.012070   
     94. D(H  17,C   8,C   3,C   0)     26.7463         0.012070   
     95. D(H  16,C   8,C   3,C   4)    -37.9057         0.012070   
     96. D(H  19,C   9,C   8,H  16)     55.4977         0.010900   
     97. D(H  19,C   9,C   8,C   3)    -66.7566         0.010900   
     98. D(H  18,C   9,C   8,H  17)     52.8916         0.010900   
     99. D(H  18,C   9,C   8,H  16)    -63.3432         0.010900   
    100. D(H  18,C   9,C   8,C   3)    174.4024         0.010900   
    101. D(N  10,C   9,C   8,H  17)    -65.9328         0.010900   
    102. D(N  10,C   9,C   8,H  16)    177.8324         0.010900   
    103. D(H  19,C   9,C   8,H  17)    171.7325         0.010900   
    104. D(N  10,C   9,C   8,C   3)     55.5780         0.010900   
    105. D(Cu 22,N  10,C   9,H  19)    178.0144         0.014278   
    106. D(Cu 22,N  10,C   9,H  18)    -64.0407         0.014278   
    107. D(Cu 22,N  10,C   9,C   8)     56.1394         0.014278   
    108. D(H  21,N  10,C   9,H  19)    -58.3154         0.014278   
    109. D(H  21,N  10,C   9,H  18)     59.6295         0.014278   
    110. D(H  21,N  10,C   9,C   8)    179.8096         0.014278   
    111. D(H  20,N  10,C   9,H  19)     58.7272         0.014278   
    112. D(H  20,N  10,C   9,H  18)    176.6721         0.014278   
    113. D(H  20,N  10,C   9,C   8)    -63.1478         0.014278   
    -----------------------------------------------------------------

Number of atoms                         .... 23
Number of degrees of freedom            .... 113

         *************************************************************
         *                GEOMETRY OPTIMIZATION CYCLE   1            *
         *************************************************************
---------------------------------
CARTESIAN COORDINATES (ANGSTROEM)
---------------------------------
  C      0.051510   -0.782650   -0.620036
  C     -1.146849    1.588315    0.224342
  C     -1.272943   -0.785446   -0.195866
  C      0.804526    0.402257   -0.621604
  C      0.185742    1.584062   -0.196075
  C     -1.886135    0.406552    0.232475
  O     -3.187524    0.409228    0.645871
  O     -2.070930   -1.907687   -0.161630
  C      2.261990    0.363430   -1.010936
  C      3.192494    0.219083    0.199036
  N      2.831520   -0.980117    0.996477
  H      0.520480   -1.721645   -0.942378
  H     -1.633865    2.508808    0.548486
  H      0.747498    2.520699   -0.200297
  H     -3.514195   -0.508160    0.570898
  H     -1.542973   -2.680602   -0.428201
  H      2.540202    1.282942   -1.548569
  H      2.444178   -0.486384   -1.688226
  H      4.231175    0.095142   -0.139310
  H      3.140391    1.129290    0.821563
  H      1.881969   -0.857301    1.368604
  H      3.458375   -1.073079    1.801459
  Cu     2.794679   -2.805967    0.031722

----------------------------
CARTESIAN COORDINATES (A.U.)
----------------------------
  NO LB      ZA    FRAG     MASS         X           Y           Z
   0 C     6.0000    0    12.011    0.097340   -1.478995   -1.171699
   1 C     6.0000    0    12.011   -2.167230    3.001480    0.423944
   2 C     6.0000    0    12.011   -2.405515   -1.484278   -0.370132
   3 C     6.0000    0    12.011    1.520334    0.760155   -1.174661
   4 C     6.0000    0    12.011    0.351001    2.993444   -0.370527
   5 C     6.0000    0    12.011   -3.564278    0.768272    0.439313
   6 O     8.0000    0    15.999   -6.023547    0.773328    1.220520
   7 O     8.0000    0    15.999   -3.913491   -3.605006   -0.305437
   8 C     6.0000    0    12.011    4.274541    0.686784   -1.910393
   9 C     6.0000    0    12.011    6.032939    0.414007    0.376124
  10 N     7.0000    0    14.007    5.350798   -1.852152    1.883068
  11 H     1.0000    0     1.008    0.983564   -3.253437   -1.780835
  12 H     1.0000    0     1.008   -3.087558    4.740960    1.036489
  13 H     1.0000    0     1.008    1.412567    4.763431   -0.378506
  14 H     1.0000    0     1.008   -6.640867   -0.960283    1.078841
  15 H     1.0000    0     1.008   -2.915796   -5.065603   -0.809183
  16 H     1.0000    0     1.008    4.800285    2.424409   -2.926371
  17 H     1.0000    0     1.008    4.618827   -0.919132   -3.190285
  18 H     1.0000    0     1.008    7.995762    0.179792   -0.263258
  19 H     1.0000    0     1.008    5.934478    2.134048    1.552529
  20 H     1.0000    0     1.008    3.556407   -1.620064    2.586287
  21 H     1.0000    0     1.008    6.535382   -2.027826    3.404264
  22 Cu   29.0000    0    63.550    5.281178   -5.302508    0.059945

--------------------------------
INTERNAL COORDINATES (ANGSTROEM)
--------------------------------
 C      0   0   0     0.000000000000     0.00000000     0.00000000
 C      1   0   0     2.787564121803     0.00000000     0.00000000
 C      1   2   0     1.390721491660    59.99420910     0.00000000
 C      1   2   3     1.403937259214    60.86043448   180.43596119
 C      2   1   3     1.397341997894    59.75504140   179.65638171
 C      2   1   3     1.393977572573    60.57349007     0.00000000
 O      6   2   1     1.365473145722   120.36841437   180.21958767
 O      3   1   2     1.377453987116   124.12042413   179.81753767
 C      4   1   2     1.509068541521   119.77477075   176.92345178
 C      9   4   1     1.533201408225   112.64162661   266.13438468
 N     10   9   4     1.484686337785   110.63200175    55.57804150
 H      1   2   3     1.097973815310   179.38179530   305.80374388
 H      2   1   3     1.090670830382   178.92404040   330.84859442
 H      5   2   1     1.092189115574   119.27875072   179.33140456
 H      7   6   2     0.976696166652   107.07892678   179.83597396
 H      8   3   1     0.973240090339   109.02316817     3.23003566
 H      9   4   1     1.100887111341   110.40045888   145.18617715
 H      9   4   1     1.101861141414   109.76230713    26.74632641
 H     10   9   4     1.099408290290   109.94516642   174.40240162
 H     10   9   4     1.103961176875   109.80096383   293.24337325
 H     11  10   9     1.027233814018   108.82927009   296.85219468
 H     11  10   9     1.024492704686   110.27677707   179.80963878
 Cu    11  10   9     2.065390572359   117.87116592    56.13937219

---------------------------
INTERNAL COORDINATES (A.U.)
---------------------------
 C      0   0   0     0.000000000000     0.00000000     0.00000000
 C      1   0   0     5.267732770952     0.00000000     0.00000000
 C      1   2   0     2.628082747795    59.99420910     0.00000000
 C      1   2   3     2.653056929123    60.86043448   180.43596119
 C      2   1   3     2.640593691446    59.75504140   179.65638171
 C      2   1   3     2.634235848991    60.57349007     0.00000000
 O      6   2   1     2.580370288639   120.36841437   180.21958767
 O      3   1   2     2.603010797726   124.12042413   179.81753767
 C      4   1   2     2.851726260790   119.77477075   176.92345178
 C      9   4   1     2.897330769687   112.64162661   266.13438468
 N     10   9   4     2.805650573188   110.63200175    55.57804150
 H      1   2   3     2.074869813153   179.38179530   305.80374388
 H      2   1   3     2.061069171678   178.92404040   330.84859442
 H      5   2   1     2.063938314884   119.27875072   179.33140456
 H      7   6   2     1.845688271023   107.07892678   179.83597396
 H      8   3   1     1.839157233294   109.02316817     3.23003566
 H      9   4   1     2.080375144798   110.40045888   145.18617715
 H      9   4   1     2.082215794882   109.76230713    26.74632641
 H     10   9   4     2.077580578010   109.94516642   174.40240162
 H     10   9   4     2.086184286774   109.80096383   293.24337325
 H     11  10   9     1.941190583998   108.82927009   296.85219468
 H     11  10   9     1.936010638057   110.27677707   179.80963878
 Cu    11  10   9     3.903022541340   117.87116592    56.13937219

---------------------
BASIS SET INFORMATION
---------------------
There are 5 groups of distinct atoms

 Group   1 Type C   : 11s6p2d1f contracted to 5s3p2d1f pattern {62111/411/11/1}
 Group   2 Type O   : 11s6p2d1f contracted to 5s3p2d1f pattern {62111/411/11/1}
 Group   3 Type N   : 11s6p2d1f contracted to 5s3p2d1f pattern {62111/411/11/1}
 Group   4 Type H   : 5s1p contracted to 3s1p pattern {311/1}
 Group   5 Type Cu  : 17s11p7d1f contracted to 6s4p4d1f pattern {842111/6311/4111/1}

Atom   0C    basis set group =>   1
Atom   1C    basis set group =>   1
Atom   2C    basis set group =>   1
Atom   3C    basis set group =>   1
Atom   4C    basis set group =>   1
Atom   5C    basis set group =>   1
Atom   6O    basis set group =>   2
Atom   7O    basis set group =>   2
Atom   8C    basis set group =>   1
Atom   9C    basis set group =>   1
Atom  10N    basis set group =>   3
Atom  11H    basis set group =>   4
Atom  12H    basis set group =>   4
Atom  13H    basis set group =>   4
Atom  14H    basis set group =>   4
Atom  15H    basis set group =>   4
Atom  16H    basis set group =>   4
Atom  17H    basis set group =>   4
Atom  18H    basis set group =>   4
Atom  19H    basis set group =>   4
Atom  20H    basis set group =>   4
Atom  21H    basis set group =>   4
Atom  22Cu   basis set group =>   5
---------------------------------
AUXILIARY/J BASIS SET INFORMATION
---------------------------------
There are 5 groups of distinct atoms

 Group   1 Type C   : 12s5p4d2f1g contracted to 6s4p3d1f1g pattern {711111/2111/211/2/1}
 Group   2 Type O   : 12s5p4d2f1g contracted to 6s4p3d1f1g pattern {711111/2111/211/2/1}
 Group   3 Type N   : 12s5p4d2f1g contracted to 6s4p3d1f1g pattern {711111/2111/211/2/1}
 Group   4 Type H   : 5s2p1d contracted to 3s1p1d pattern {311/2/1}
 Group   5 Type Cu  : 19s5p5d3f3g contracted to 8s5p4d3f3g pattern {121111111/11111/2111/111/111}

Atom   0C    basis set group =>   1
Atom   1C    basis set group =>   1
Atom   2C    basis set group =>   1
Atom   3C    basis set group =>   1
Atom   4C    basis set group =>   1
Atom   5C    basis set group =>   1
Atom   6O    basis set group =>   2
Atom   7O    basis set group =>   2
Atom   8C    basis set group =>   1
Atom   9C    basis set group =>   1
Atom  10N    basis set group =>   3
Atom  11H    basis set group =>   4
Atom  12H    basis set group =>   4
Atom  13H    basis set group =>   4
Atom  14H    basis set group =>   4
Atom  15H    basis set group =>   4
Atom  16H    basis set group =>   4
Atom  17H    basis set group =>   4
Atom  18H    basis set group =>   4
Atom  19H    basis set group =>   4
Atom  20H    basis set group =>   4
Atom  21H    basis set group =>   4
Atom  22Cu   basis set group =>   5


           ************************************************************
           *        Program running with 16 parallel MPI-processes    *
           *              working on a common directory               *
           ************************************************************
------------------------------------------------------------------------------
                           ORCA GTO INTEGRAL CALCULATION
                           -- RI-GTO INTEGRALS CHOSEN --
------------------------------------------------------------------------------
------------------------------------------------------------------------------
                   ___                                                        
                  /   \      - P O W E R E D   B Y -                         
                 /     \                                                     
                 |  |  |   _    _      __       _____    __    __             
                 |  |  |  | |  | |    /  \     |  _  \  |  |  /  |          
                  \  \/   | |  | |   /    \    | | | |  |  | /  /          
                 / \  \   | |__| |  /  /\  \   | |_| |  |  |/  /          
                |  |  |   |  __  | /  /__\  \  |    /   |      \           
                |  |  |   | |  | | |   __   |  |    \   |  |\   \          
                \     /   | |  | | |  |  |  |  | |\  \  |  | \   \       
                 \___/    |_|  |_| |__|  |__|  |_| \__\ |__|  \__/        
                                                                              
                      - O R C A' S   B I G   F R I E N D -                    
                                      &                                       
                       - I N T E G R A L  F E E D E R -                       
                                                                              
 v1 FN, 2020, v2 2021                                                         
------------------------------------------------------------------------------


Reading SHARK input file neutral.SHARKINP.tmp ... ok
----------------------
SHARK INTEGRAL PACKAGE
----------------------

Number of atoms                             ...     23
Number of basis functions                   ...    452
Number of shells                            ...    180
Maximum angular momentum                    ...      3
Integral batch strategy                     ... SHARK/LIBINT Hybrid
RI-J (if used) integral strategy            ... SPLIT-RIJ (Revised 2003 algorithm where possible)
Printlevel                                  ...      1
Contraction scheme used                     ... SEGMENTED contraction
Coulomb Range Separation                    ... NOT USED
Exchange Range Separation                   ... NOT USED
Finite Nucleus Model                        ... NOT USED
Auxiliary Coulomb fitting basis             ... AVAILABLE
   # of basis functions in Aux-J            ...    751
   # of shells in Aux-J                     ...    243
   Maximum angular momentum in Aux-J        ...      4
Auxiliary J/K fitting basis                 ... NOT available
Auxiliary Correlation fitting basis         ... NOT available
Auxiliary 'external' fitting basis          ... NOT available
Integral threshold                          ...     2.500000e-11
Primitive cut-off                           ...     2.500000e-12
Primitive pair pre-selection threshold      ...     2.500000e-12

Calculating pre-screening integrals         ... done (  0.1 sec) Dimension = 180
Organizing shell pair data                  ... done (  0.4 sec)
Shell pair information
Total number of shell pairs                 ...     16290
Shell pairs after pre-screening             ...     13576
Total number of primitive shell pairs       ...     52337
Primitive shell pairs kept                  ...     30278
          la=0 lb=0:   3611 shell pairs
          la=1 lb=0:   3815 shell pairs
          la=1 lb=1:   1032 shell pairs
          la=2 lb=0:   2029 shell pairs
          la=2 lb=1:   1084 shell pairs
          la=2 lb=2:    298 shell pairs
          la=3 lb=0:    897 shell pairs
          la=3 lb=1:    486 shell pairs
          la=3 lb=2:    260 shell pairs
          la=3 lb=3:     64 shell pairs

Calculating one electron integrals          ... done (  0.0 sec)
Calculating RI/J V-Matrix + Cholesky decomp.... done (  0.0 sec)
Calculating Nuclear repulsion               ... done (  0.0 sec) ENN=    922.991575861672 Eh

SHARK setup successfully completed in   0.8 seconds

Maximum memory used throughout the entire GTOINT-calculation: 30.0 MB


           ************************************************************
           *        Program running with 16 parallel MPI-processes    *
           *              working on a common directory               *
           ************************************************************
-------------------------------------------------------------------------------
                                 ORCA SCF
-------------------------------------------------------------------------------

------------
SCF SETTINGS
------------
Hamiltonian:
 Density Functional     Method          .... DFT(GTOs)
 Exchange Functional    Exchange        .... PBE
   PBE kappa parameter   XKappa         ....  0.804000
   PBE mue parameter    XMuePBE         ....  0.219520
 Correlation Functional Correlation     .... PBE
   PBE beta parameter  CBetaPBE         ....  0.066725
 LDA part of GGA corr.  LDAOpt          .... PW91-LDA
 Gradients option       PostSCFGGA      .... off
   Density functional embedding theory  .... OFF
   NL short-range parameter             ....  6.400000
 RI-approximation to the Coulomb term is turned on
   Number of AuxJ basis functions       .... 751


General Settings:
 Integral files         IntName         .... neutral
 Hartree-Fock type      HFTyp           .... UHF
 Total Charge           Charge          ....    0
 Multiplicity           Mult            ....    2
 Number of Electrons    NEL             ....  111
 Basis Dimension        Dim             ....  452
 Nuclear Repulsion      ENuc            ....    922.9915758617 Eh

Convergence Acceleration:
 DIIS                   CNVDIIS         .... on
   Start iteration      DIISMaxIt       ....    12
   Startup error        DIISStart       ....  0.200000
   # of expansion vecs  DIISMaxEq       ....     5
   Bias factor          DIISBfac        ....   1.050
   Max. coefficient     DIISMaxC        ....  10.000
 Trust-Rad. Augm. Hess. CNVTRAH         .... auto
   Auto Start mean grad. ratio tolernc. ....  1.125000
   Auto Start start iteration           ....    20
   Auto Start num. interpolation iter.  ....    10
   Max. Number of Micro iterations      ....    16
   Max. Number of Macro iterations      .... Maxiter - #DIIS iter
   Number of Davidson start vectors     ....     2
   Converg. threshold I  (grad. norm)   ....   1.000e-05
   Converg. threshold II (energy diff.) ....   1.000e-08
   Grad. Scal. Fac. for Micro threshold ....   0.100
   Minimum threshold for Micro iter.    ....   0.010
   NR start threshold (gradient norm)   ....   0.001
   Initial trust radius                 ....   0.400
   Minimum AH scaling param. (alpha)    ....   1.000
   Maximum AH scaling param. (alpha)    .... 1000.000
   Orbital update algorithm             .... Taylor
   White noise on init. David. guess    .... on
   Maximum white noise                  ....   0.010
   Quad. conv. algorithm                .... NR
 SOSCF                  CNVSOSCF        .... off
 Level Shifting         CNVShift        .... on
   Level shift para.    LevelShift      ....    0.2500
   Turn off err/grad.   ShiftErr        ....    0.0010
 Zerner damping         CNVZerner       .... off
 Static damping         CNVDamp         .... on
   Fraction old density DampFac         ....    0.7000
   Max. Damping (<1)    DampMax         ....    0.9800
   Min. Damping (>=0)   DampMin         ....    0.0000
   Turn off err/grad.   DampErr         ....    0.1000
 Fernandez-Rico         CNVRico         .... off

SCF Procedure:
 Maximum # iterations   MaxIter         ....   125
 SCF integral mode      SCFMode         .... Direct
   Integral package                     .... SHARK and LIBINT hybrid scheme
 Reset frequency        DirectResetFreq ....    20
 Integral Threshold     Thresh          ....  2.500e-11 Eh
 Primitive CutOff       TCut            ....  2.500e-12 Eh

Convergence Tolerance:
 Convergence Check Mode ConvCheckMode   .... Total+1el-Energy
 Convergence forced     ConvForced      .... 0
 Energy Change          TolE            ....  1.000e-08 Eh
 1-El. energy change                    ....  1.000e-05 Eh
 DIIS Error             TolErr          ....  5.000e-07


Diagonalization of the overlap matrix:
Smallest eigenvalue                        ... 8.646e-06
Time for diagonalization                   ...    0.059 sec
Threshold for overlap eigenvalues          ... 1.000e-08
Number of eigenvalues below threshold      ... 0
Time for construction of square roots      ...    0.035 sec
Total time needed                          ...    0.096 sec

Time for model grid setup =    0.179 sec

------------------------------
INITIAL GUESS: MODEL POTENTIAL
------------------------------
Loading Hartree-Fock densities                     ... done
Calculating cut-offs                               ... done
Initializing the effective Hamiltonian             ... done
Setting up the integral package (SHARK)            ... done
Starting the Coulomb interaction                   ... done (   0.2 sec)
Reading the grid                                   ... done
Mapping shells                                     ... done
Starting the XC term evaluation                    ... done (   0.1 sec)
  promolecular density results
     # of electrons  =    111.001509240
     EX              =   -132.520684694
     EC              =     -4.099183928
     EX+EC           =   -136.619868622
Transforming the Hamiltonian                       ... done (   0.0 sec)
Diagonalizing the Hamiltonian                      ... done (   0.1 sec)
Back transforming the eigenvectors                 ... done (   0.0 sec)
Now organizing SCF variables                       ... done
                      ------------------
                      INITIAL GUESS DONE (   0.6 sec)
                      ------------------
-------------------
DFT GRID GENERATION
-------------------

General Integration Accuracy     IntAcc      ... 4.388
Radial Grid Type                 RadialGrid  ... OptM3 with GC (2021)
Angular Grid (max. ang.)         AngularGrid ... 4 (Lebedev-302)
Angular grid pruning method      GridPruning ... 4 (adaptive)
Weight generation scheme         WeightScheme... Becke
Basis function cutoff            BFCut       ... 1.0000e-11
Integration weight cutoff        WCut        ... 1.0000e-14
Angular grids for H and He will be reduced by one unit
Partially contracted basis set               ... off
Rotationally invariant grid construction     ... off

Total number of grid points                  ...   112203
Total number of batches                      ...     1764
Average number of points per batch           ...       63
Average number of grid points per atom       ...     4878
Time for grid setup =    0.658 sec

--------------
SCF ITERATIONS
--------------
ITER       Energy         Delta-E        Max-DP      RMS-DP      [F,P]     Damp
               ***  Starting incremental Fock matrix formation  ***
  0  -2156.1681853372   0.000000000000 0.15492578  0.00106022  0.2448195 0.7000
  1  -2156.3324800270  -0.164294689883 0.13000762  0.00084311  0.0799843 0.7000
                               ***Turning on DIIS***
  2  -2156.3900352003  -0.057555173260 0.16115846  0.00122692  0.0545964 0.0000
  3  -2156.4828931090  -0.092857908665 0.03262042  0.00019978  0.1260242 0.7000
  4  -2156.4961996677  -0.013306558769 0.12128195  0.00075586  0.0914149 0.0000
  5  -2156.5158474391  -0.019647771375 0.01472179  0.00012099  0.0127680 0.0000
  6  -2156.5166193376  -0.000771898462 0.00363206  0.00003919  0.0020292 0.0000
  7  -2156.5166615183  -0.000042180701 0.00155005  0.00001748  0.0011045 0.0000
  8  -2156.5166679286  -0.000006410292 0.00183557  0.00002071  0.0004834 0.0000
  9  -2156.5166696748  -0.000001746188 0.00016002  0.00000188  0.0010799 0.0000
 10  -2156.5166710140  -0.000001339202 0.00040960  0.00000296  0.0001982 0.0000
 11  -2156.5166711641  -0.000000150132 0.00023388  0.00000165  0.0002304 0.0000
 12  -2156.5166712645  -0.000000100455 0.00011147  0.00000115  0.0000524 0.0000
 13  -2156.5166712756  -0.000000011075 0.00003358  0.00000044  0.0000271 0.0000
 14  -2156.5166712805  -0.000000004837 0.00007057  0.00000063  0.0000160 0.0000
 15  -2156.5166712903  -0.000000009874 0.00004362  0.00000039  0.0000068 0.0000
 16  -2156.5166712939  -0.000000003530 0.00006317  0.00000061  0.0000059 0.0000
 17  -2156.5166712845   0.000000009402 0.00002967  0.00000023  0.0000045 0.0000
 18  -2156.5166712955  -0.000000011028 0.00002186  0.00000027  0.0000013 0.0000
                            ***DIIS convergence achieved***

               *****************************************************
               *                     SUCCESS                       *
               *           SCF CONVERGED AFTER  19 CYCLES          *
               *****************************************************


----------------
TOTAL SCF ENERGY
----------------

Total Energy       :        -2156.51667129 Eh          -58681.80195 eV

Components:
Nuclear Repulsion  :          922.99157586 Eh           25115.87765 eV
Electronic Energy  :        -3079.50824715 Eh          -83797.67960 eV
One Electron Energy:        -4823.99779990 Eh         -131267.65365 eV
Two Electron Energy:         1744.48955274 Eh           47469.97406 eV

Virial components:
Potential Energy   :        -4308.33616246 Eh         -117235.78713 eV
Kinetic Energy     :         2151.81949117 Eh           58553.98518 eV
Virial Ratio       :            2.00218289


DFT components:
N(Alpha)           :       55.999967227643 electrons
N(Beta)            :       54.999963883114 electrons
N(Total)           :      110.999931110758 electrons
E(X)               :     -133.837519627268 Eh       
E(C)               :       -4.099941490196 Eh       
E(XC)              :     -137.937461117464 Eh       
DFET-embed. en.    :        0.000000000000 Eh       

---------------
SCF CONVERGENCE
---------------

  Last Energy change         ...    4.5948e-09  Tolerance :   1.0000e-08
  Last MAX-Density change    ...    1.0742e-04  Tolerance :   1.0000e-07
  Last RMS-Density change    ...    9.1626e-07  Tolerance :   5.0000e-09
  Last DIIS Error            ...    7.5493e-07  Tolerance :   5.0000e-07

             **** THE GBW FILE WAS UPDATED (neutral.gbw) ****
             **** DENSITY neutral.scfp WAS UPDATED ****
             **** ENERGY FILE WAS UPDATED (neutral.en.tmp) ****
----------------------
UHF SPIN CONTAMINATION
----------------------

Warning: in a DFT calculation there is little theoretical justification to 
         calculate <S**2> as in Hartree-Fock theory. We will do it anyways
         but you should keep in mind that the values have only limited relevance

Expectation value of <S**2>     :     0.752280
Ideal value S*(S+1) for S=0.5   :     0.750000
Deviation                       :     0.002280

             **** THE GBW FILE WAS UPDATED (neutral.gbw) ****
             **** DENSITY neutral.scfp WAS UPDATED ****
----------------
ORBITAL ENERGIES
----------------
                 SPIN UP ORBITALS
  NO   OCC          E(Eh)            E(eV) 
   0   1.0000    -321.467899     -8747.5863 
   1   1.0000     -38.236296     -1040.4625 
   2   1.0000     -33.528144      -912.3472 
   3   1.0000     -33.526616      -912.3056 
   4   1.0000     -33.526491      -912.3022 
   5   1.0000     -18.800510      -511.5879 
   6   1.0000     -18.784975      -511.1652 
   7   1.0000     -14.030854      -381.7989 
   8   1.0000      -9.951990      -270.8074 
   9   1.0000      -9.947671      -270.6899 
  10   1.0000      -9.934948      -270.3437 
  11   1.0000      -9.900558      -269.4079 
  12   1.0000      -9.900230      -269.3989 
  13   1.0000      -9.893557      -269.2174 
  14   1.0000      -9.890370      -269.1307 
  15   1.0000      -9.889788      -269.1148 
  16   1.0000      -4.067591      -110.6848 
  17   1.0000      -2.604516       -70.8725 
  18   1.0000      -2.601914       -70.8017 
  19   1.0000      -2.601750       -70.7972 
  20   1.0000      -0.996767       -27.1234 
  21   1.0000      -0.969035       -26.3688 
  22   1.0000      -0.853667       -23.2295 
  23   1.0000      -0.784925       -21.3589 
  24   1.0000      -0.716683       -19.5019 
  25   1.0000      -0.680738       -18.5238 
  26   1.0000      -0.658338       -17.9143 
  27   1.0000      -0.587644       -15.9906 
  28   1.0000      -0.583656       -15.8821 
  29   1.0000      -0.533437       -14.5155 
  30   1.0000      -0.505811       -13.7638 
  31   1.0000      -0.494924       -13.4676 
  32   1.0000      -0.485647       -13.2151 
  33   1.0000      -0.453673       -12.3451 
  34   1.0000      -0.436252       -11.8710 
  35   1.0000      -0.422218       -11.4891 
  36   1.0000      -0.393056       -10.6956 
  37   1.0000      -0.391340       -10.6489 
  38   1.0000      -0.382128       -10.3982 
  39   1.0000      -0.368125       -10.0172 
  40   1.0000      -0.363527        -9.8921 
  41   1.0000      -0.359105        -9.7718 
  42   1.0000      -0.333376        -9.0716 
  43   1.0000      -0.330753        -9.0002 
  44   1.0000      -0.315100        -8.5743 
  45   1.0000      -0.305996        -8.3266 
  46   1.0000      -0.299281        -8.1438 
  47   1.0000      -0.290343        -7.9006 
  48   1.0000      -0.224312        -6.1038 
  49   1.0000      -0.193309        -5.2602 
  50   1.0000      -0.177201        -4.8219 
  51   1.0000      -0.176923        -4.8143 
  52   1.0000      -0.176468        -4.8019 
  53   1.0000      -0.176367        -4.7992 
  54   1.0000      -0.173071        -4.7095 
  55   1.0000      -0.114376        -3.1123 
  56   0.0000      -0.045503        -1.2382 
  57   0.0000      -0.033857        -0.9213 
  58   0.0000      -0.012612        -0.3432 
  59   0.0000      -0.011882        -0.3233 
  60   0.0000       0.002861         0.0779 
  61   0.0000       0.015320         0.4169 
  62   0.0000       0.031768         0.8645 
  63   0.0000       0.040784         1.1098 
  64   0.0000       0.045759         1.2452 
  65   0.0000       0.055928         1.5219 
  66   0.0000       0.059309         1.6139 
  67   0.0000       0.073619         2.0033 
  68   0.0000       0.083938         2.2841 
  69   0.0000       0.092651         2.5212 
  70   0.0000       0.101245         2.7550 
  71   0.0000       0.111803         3.0423 
  72   0.0000       0.114236         3.1085 
  73   0.0000       0.118078         3.2131 
  74   0.0000       0.125021         3.4020 
  75   0.0000       0.133486         3.6324 
  76   0.0000       0.147347         4.0095 
  77   0.0000       0.155229         4.2240 
  78   0.0000       0.167396         4.5551 
  79   0.0000       0.169057         4.6003 
  80   0.0000       0.175276         4.7695 
  81   0.0000       0.181616         4.9420 
  82   0.0000       0.194805         5.3009 
  83   0.0000       0.198742         5.4081 
  84   0.0000       0.203526         5.5382 
  85   0.0000       0.207502         5.6464 
  86   0.0000       0.217790         5.9264 
  87   0.0000       0.223839         6.0910 
  88   0.0000       0.234157         6.3717 
  89   0.0000       0.240892         6.5550 
  90   0.0000       0.252380         6.8676 
  91   0.0000       0.257058         6.9949 
  92   0.0000       0.270469         7.3598 
  93   0.0000       0.272474         7.4144 
  94   0.0000       0.276499         7.5239 
  95   0.0000       0.287984         7.8364 
  96   0.0000       0.301328         8.1995 
  97   0.0000       0.305262         8.3066 
  98   0.0000       0.309660         8.4263 
  99   0.0000       0.314735         8.5644 
 100   0.0000       0.321198         8.7403 
 101   0.0000       0.327578         8.9139 
 102   0.0000       0.335348         9.1253 
 103   0.0000       0.339325         9.2335 
 104   0.0000       0.353052         9.6070 
 105   0.0000       0.359408         9.7800 
 106   0.0000       0.369534        10.0555 
 107   0.0000       0.375990        10.2312 
 108   0.0000       0.380469        10.3531 
 109   0.0000       0.383341        10.4312 
 110   0.0000       0.392998        10.6940 
 111   0.0000       0.396468        10.7884 
 112   0.0000       0.398886        10.8542 
 113   0.0000       0.415319        11.3014 
 114   0.0000       0.420513        11.4427 
 115   0.0000       0.427661        11.6372 
 116   0.0000       0.432180        11.7602 
 117   0.0000       0.447400        12.1744 
 118   0.0000       0.452003        12.2996 
 119   0.0000       0.452553        12.3146 
 120   0.0000       0.468632        12.7521 
 121   0.0000       0.486217        13.2306 
 122   0.0000       0.491949        13.3866 
 123   0.0000       0.498144        13.5552 
 124   0.0000       0.509794        13.8722 
 125   0.0000       0.527372        14.3505 
 126   0.0000       0.532212        14.4822 
 127   0.0000       0.547765        14.9054 
 128   0.0000       0.552964        15.0469 
 129   0.0000       0.560027        15.2391 
 130   0.0000       0.562947        15.3186 
 131   0.0000       0.569819        15.5056 
 132   0.0000       0.599851        16.3228 
 133   0.0000       0.609340        16.5810 
 134   0.0000       0.611109        16.6291 
 135   0.0000       0.634403        17.2630 
 136   0.0000       0.639522        17.4023 
 137   0.0000       0.648521        17.6472 
 138   0.0000       0.659903        17.9569 
 139   0.0000       0.678567        18.4648 
 140   0.0000       0.700570        19.0635 
 141   0.0000       0.704692        19.1756 
 142   0.0000       0.714859        19.4523 
 143   0.0000       0.727923        19.8078 
 144   0.0000       0.739878        20.1331 
 145   0.0000       0.761359        20.7176 
 146   0.0000       0.771166        20.9845 
 147   0.0000       0.777439        21.1552 
 148   0.0000       0.785079        21.3631 
 149   0.0000       0.796754        21.6808 
 150   0.0000       0.811496        22.0819 
 151   0.0000       0.817644        22.2492 
 152   0.0000       0.822580        22.3835 
 153   0.0000       0.830598        22.6017 
 154   0.0000       0.851449        23.1691 
 155   0.0000       0.866570        23.5806 
 156   0.0000       0.878692        23.9104 
 157   0.0000       0.891108        24.2483 
 158   0.0000       0.901816        24.5397 
 159   0.0000       0.923195        25.1214 
 160   0.0000       0.928561        25.2674 
 161   0.0000       0.952221        25.9113 
 162   0.0000       0.966837        26.3090 
 163   0.0000       0.980985        26.6940 
 164   0.0000       0.990458        26.9517 
 165   0.0000       1.002604        27.2822 
 166   0.0000       1.010420        27.4949 
 167   0.0000       1.016772        27.6678 
 168   0.0000       1.048646        28.5351 
 169   0.0000       1.060567        28.8595 
 170   0.0000       1.082015        29.4431 
 171   0.0000       1.101070        29.9616 
 172   0.0000       1.102406        29.9980 
 173   0.0000       1.114018        30.3140 
 174   0.0000       1.132022        30.8039 
 175   0.0000       1.147748        31.2318 
 176   0.0000       1.150197        31.2985 
 177   0.0000       1.175866        31.9969 
 178   0.0000       1.190159        32.3859 
 179   0.0000       1.202256        32.7150 
 180   0.0000       1.220927        33.2231 
 181   0.0000       1.251093        34.0440 
 182   0.0000       1.255146        34.1543 
 183   0.0000       1.274187        34.6724 
 184   0.0000       1.275617        34.7113 
 185   0.0000       1.291881        35.1539 
 186   0.0000       1.314044        35.7570 
 187   0.0000       1.322717        35.9930 
 188   0.0000       1.325192        36.0603 
 189   0.0000       1.345100        36.6020 
 190   0.0000       1.366454        37.1831 
 191   0.0000       1.375155        37.4199 
 192   0.0000       1.397468        38.0270 
 193   0.0000       1.414611        38.4935 
 194   0.0000       1.427675        38.8490 
 195   0.0000       1.447936        39.4004 
 196   0.0000       1.459435        39.7132 
 197   0.0000       1.465218        39.8706 
 198   0.0000       1.492800        40.6211 
 199   0.0000       1.498103        40.7655 
 200   0.0000       1.515883        41.2493 
 201   0.0000       1.536471        41.8095 
 202   0.0000       1.542321        41.9687 
 203   0.0000       1.556893        42.3652 
 204   0.0000       1.562064        42.5059 
 205   0.0000       1.567334        42.6493 
 206   0.0000       1.598446        43.4959 
 207   0.0000       1.603979        43.6465 
 208   0.0000       1.630629        44.3717 
 209   0.0000       1.645389        44.7733 
 210   0.0000       1.650362        44.9086 
 211   0.0000       1.672960        45.5236 
 212   0.0000       1.679157        45.6922 
 213   0.0000       1.684385        45.8345 
 214   0.0000       1.706604        46.4391 
 215   0.0000       1.728348        47.0307 
 216   0.0000       1.755239        47.7625 
 217   0.0000       1.764751        48.0213 
 218   0.0000       1.772514        48.2326 
 219   0.0000       1.795303        48.8527 
 220   0.0000       1.800121        48.9838 
 221   0.0000       1.808141        49.2020 
 222   0.0000       1.823319        49.6150 
 223   0.0000       1.836101        49.9629 
 224   0.0000       1.866385        50.7869 
 225   0.0000       1.871502        50.9262 
 226   0.0000       1.889466        51.4150 
 227   0.0000       1.905113        51.8408 
 228   0.0000       1.909681        51.9651 
 229   0.0000       1.917224        52.1703 
 230   0.0000       1.931320        52.5539 
 231   0.0000       1.940602        52.8065 
 232   0.0000       1.989630        54.1406 
 233   0.0000       1.997518        54.3552 
 234   0.0000       2.007181        54.6182 
 235   0.0000       2.020960        54.9931 
 236   0.0000       2.046043        55.6757 
 237   0.0000       2.049974        55.7826 
 238   0.0000       2.066259        56.2258 
 239   0.0000       2.083531        56.6958 
 240   0.0000       2.086266        56.7702 
 241   0.0000       2.101812        57.1932 
 242   0.0000       2.106190        57.3123 
 243   0.0000       2.116925        57.6045 
 244   0.0000       2.148783        58.4713 
 245   0.0000       2.152811        58.5810 
 246   0.0000       2.166922        58.9649 
 247   0.0000       2.181155        59.3522 
 248   0.0000       2.208440        60.0947 
 249   0.0000       2.228276        60.6345 
 250   0.0000       2.248977        61.1978 
 251   0.0000       2.257249        61.4229 
 252   0.0000       2.275202        61.9114 
 253   0.0000       2.292592        62.3846 
 254   0.0000       2.323143        63.2159 
 255   0.0000       2.336453        63.5781 
 256   0.0000       2.347671        63.8834 
 257   0.0000       2.378853        64.7319 
 258   0.0000       2.385048        64.9004 
 259   0.0000       2.385849        64.9223 
 260   0.0000       2.424469        65.9731 
 261   0.0000       2.426215        66.0207 
 262   0.0000       2.431678        66.1693 
 263   0.0000       2.444858        66.5280 
 264   0.0000       2.465026        67.0768 
 265   0.0000       2.487701        67.6938 
 266   0.0000       2.500028        68.0292 
 267   0.0000       2.506177        68.1966 
 268   0.0000       2.517181        68.4960 
 269   0.0000       2.545400        69.2639 
 270   0.0000       2.548414        69.3459 
 271   0.0000       2.566305        69.8327 
 272   0.0000       2.568355        69.8885 
 273   0.0000       2.593900        70.5836 
 274   0.0000       2.598811        70.7172 
 275   0.0000       2.620967        71.3201 
 276   0.0000       2.630072        71.5679 
 277   0.0000       2.640021        71.8386 
 278   0.0000       2.648245        72.0624 
 279   0.0000       2.674481        72.7763 
 280   0.0000       2.679002        72.8993 
 281   0.0000       2.692326        73.2619 
 282   0.0000       2.705867        73.6304 
 283   0.0000       2.718909        73.9853 
 284   0.0000       2.744853        74.6912 
 285   0.0000       2.752778        74.9069 
 286   0.0000       2.767260        75.3010 
 287   0.0000       2.786482        75.8240 
 288   0.0000       2.790467        75.9325 
 289   0.0000       2.815890        76.6243 
 290   0.0000       2.830681        77.0268 
 291   0.0000       2.839540        77.2678 
 292   0.0000       2.850104        77.5553 
 293   0.0000       2.855165        77.6930 
 294   0.0000       2.872134        78.1548 
 295   0.0000       2.886847        78.5551 
 296   0.0000       2.899231        78.8921 
 297   0.0000       2.935846        79.8884 
 298   0.0000       2.950000        80.2736 
 299   0.0000       2.951119        80.3040 
 300   0.0000       2.961953        80.5988 
 301   0.0000       2.987247        81.2871 
 302   0.0000       2.993268        81.4510 
 303   0.0000       3.000845        81.6571 
 304   0.0000       3.022544        82.2476 
 305   0.0000       3.027840        82.3917 
 306   0.0000       3.055886        83.1549 
 307   0.0000       3.070428        83.5506 
 308   0.0000       3.088242        84.0353 
 309   0.0000       3.102247        84.4164 
 310   0.0000       3.111859        84.6780 
 311   0.0000       3.128042        85.1183 
 312   0.0000       3.143411        85.5366 
 313   0.0000       3.155030        85.8527 
 314   0.0000       3.161263        86.0223 
 315   0.0000       3.163397        86.0804 
 316   0.0000       3.179422        86.5165 
 317   0.0000       3.200794        87.0980 
 318   0.0000       3.209415        87.3326 
 319   0.0000       3.213102        87.4330 
 320   0.0000       3.240674        88.1832 
 321   0.0000       3.243537        88.2611 
 322   0.0000       3.251298        88.4723 
 323   0.0000       3.272111        89.0387 
 324   0.0000       3.277432        89.1835 
 325   0.0000       3.289314        89.5068 
 326   0.0000       3.313569        90.1668 
 327   0.0000       3.325634        90.4951 
 328   0.0000       3.336635        90.7944 
 329   0.0000       3.342274        90.9479 
 330   0.0000       3.353296        91.2478 
 331   0.0000       3.384535        92.0979 
 332   0.0000       3.391087        92.2762 
 333   0.0000       3.397576        92.4527 
 334   0.0000       3.409867        92.7872 
 335   0.0000       3.418383        93.0189 
 336   0.0000       3.438354        93.5624 
 337   0.0000       3.446688        93.7891 
 338   0.0000       3.476324        94.5956 
 339   0.0000       3.525988        95.9470 
 340   0.0000       3.549155        96.5774 
 341   0.0000       3.575523        97.2949 
 342   0.0000       3.585107        97.5557 
 343   0.0000       3.603211        98.0483 
 344   0.0000       3.608064        98.1804 
 345   0.0000       3.610561        98.2484 
 346   0.0000       3.623585        98.6028 
 347   0.0000       3.656657        99.5027 
 348   0.0000       3.664553        99.7176 
 349   0.0000       3.670347        99.8752 
 350   0.0000       3.702401       100.7474 
 351   0.0000       3.712565       101.0240 
 352   0.0000       3.734698       101.6263 
 353   0.0000       3.751678       102.0883 
 354   0.0000       3.763202       102.4019 
 355   0.0000       3.803427       103.4965 
 356   0.0000       3.809335       103.6573 
 357   0.0000       3.838874       104.4611 
 358   0.0000       3.848103       104.7122 
 359   0.0000       3.873479       105.4027 
 360   0.0000       3.893053       105.9354 
 361   0.0000       3.915688       106.5513 
 362   0.0000       3.937788       107.1527 
 363   0.0000       3.971172       108.0611 
 364   0.0000       3.997540       108.7786 
 365   0.0000       4.003130       108.9307 
 366   0.0000       4.059428       110.4626 
 367   0.0000       4.061860       110.5288 
 368   0.0000       4.066952       110.6674 
 369   0.0000       4.089832       111.2900 
 370   0.0000       4.129722       112.3754 
 371   0.0000       4.137237       112.5799 
 372   0.0000       4.154191       113.0413 
 373   0.0000       4.185222       113.8857 
 374   0.0000       4.193699       114.1164 
 375   0.0000       4.207262       114.4854 
 376   0.0000       4.221607       114.8758 
 377   0.0000       4.263269       116.0094 
 378   0.0000       4.290065       116.7386 
 379   0.0000       4.302328       117.0723 
 380   0.0000       4.338974       118.0695 
 381   0.0000       4.354791       118.4999 
 382   0.0000       4.362132       118.6996 
 383   0.0000       4.454432       121.2113 
 384   0.0000       4.491148       122.2104 
 385   0.0000       4.513450       122.8172 
 386   0.0000       4.567307       124.2827 
 387   0.0000       4.584304       124.7453 
 388   0.0000       4.652454       126.5997 
 389   0.0000       4.688620       127.5838 
 390   0.0000       4.710872       128.1893 
 391   0.0000       4.717126       128.3595 
 392   0.0000       4.739310       128.9632 
 393   0.0000       4.768242       129.7505 
 394   0.0000       4.796590       130.5218 
 395   0.0000       4.807026       130.8058 
 396   0.0000       4.842526       131.7718 
 397   0.0000       4.904173       133.4493 
 398   0.0000       4.940025       134.4249 
 399   0.0000       4.951623       134.7405 
 400   0.0000       4.988055       135.7319 
 401   0.0000       5.009636       136.3191 
 402   0.0000       5.075565       138.1131 
 403   0.0000       5.091686       138.5518 
 404   0.0000       5.150308       140.1470 
 405   0.0000       5.157495       140.3426 
 406   0.0000       5.202762       141.5744 
 407   0.0000       5.275583       143.5559 
 408   0.0000       5.295985       144.1111 
 409   0.0000       5.320550       144.7795 
 410   0.0000       5.358036       145.7996 
 411   0.0000       5.377872       146.3393 
 412   0.0000       5.381937       146.4499 
 413   0.0000       5.461632       148.6186 
 414   0.0000       5.491161       149.4221 
 415   0.0000       5.542469       150.8183 
 416   0.0000       5.622008       152.9826 
 417   0.0000       5.685949       154.7225 
 418   0.0000       5.686091       154.7264 
 419   0.0000       5.687466       154.7638 
 420   0.0000       5.689794       154.8272 
 421   0.0000       5.699164       155.0821 
 422   0.0000       5.702658       155.1772 
 423   0.0000       5.727225       155.8457 
 424   0.0000       5.747534       156.3984 
 425   0.0000       5.806679       158.0078 
 426   0.0000       5.898161       160.4971 
 427   0.0000       6.043516       164.4524 
 428   0.0000       6.142448       167.1445 
 429   0.0000       6.244461       169.9204 
 430   0.0000       6.260855       170.3665 
 431   0.0000       6.292974       171.2405 
 432   0.0000       6.400926       174.1781 
 433   0.0000       6.517840       177.3594 
 434   0.0000       6.617496       180.0712 
 435   0.0000       6.642964       180.7642 
 436   0.0000       6.693373       182.1360 
 437   0.0000       6.844107       186.2376 
 438   0.0000       6.858591       186.6317 
 439   0.0000       7.084966       192.7917 
 440   0.0000       7.219458       196.4514 
 441   0.0000      21.900370       595.9394 
 442   0.0000      22.124345       602.0340 
 443   0.0000      22.279520       606.2566 
 444   0.0000      22.437748       610.5622 
 445   0.0000      22.481299       611.7472 
 446   0.0000      22.574320       614.2785 
 447   0.0000      22.691162       617.4579 
 448   0.0000      23.110945       628.8808 
 449   0.0000      31.651424       861.2790 
 450   0.0000      43.437861      1182.0043 
 451   0.0000      43.657646      1187.9849 

                 SPIN DOWN ORBITALS
  NO   OCC          E(Eh)            E(eV) 
   0   1.0000    -321.467274     -8747.5693 
   1   1.0000     -38.234715     -1040.4195 
   2   1.0000     -33.526095      -912.2914 
   3   1.0000     -33.525976      -912.2882 
   4   1.0000     -33.525180      -912.2665 
   5   1.0000     -18.800499      -511.5876 
   6   1.0000     -18.784970      -511.1650 
   7   1.0000     -14.028490      -381.7346 
   8   1.0000      -9.951987      -270.8073 
   9   1.0000      -9.947656      -270.6895 
  10   1.0000      -9.934912      -270.3427 
  11   1.0000      -9.900486      -269.4059 
  12   1.0000      -9.900232      -269.3990 
  13   1.0000      -9.893357      -269.2119 
  14   1.0000      -9.890360      -269.1304 
  15   1.0000      -9.889757      -269.1140 
  16   1.0000      -4.064069      -110.5889 
  17   1.0000      -2.600059       -70.7512 
  18   1.0000      -2.598523       -70.7094 
  19   1.0000      -2.598317       -70.7038 
  20   1.0000      -0.996746       -27.1228 
  21   1.0000      -0.969020       -26.3684 
  22   1.0000      -0.851250       -23.1637 
  23   1.0000      -0.784740       -21.3539 
  24   1.0000      -0.716310       -19.4918 
  25   1.0000      -0.680575       -18.5194 
  26   1.0000      -0.657976       -17.9044 
  27   1.0000      -0.587505       -15.9868 
  28   1.0000      -0.583149       -15.8683 
  29   1.0000      -0.533174       -14.5084 
  30   1.0000      -0.505694       -13.7606 
  31   1.0000      -0.494513       -13.4564 
  32   1.0000      -0.484410       -13.1815 
  33   1.0000      -0.452684       -12.3182 
  34   1.0000      -0.435729       -11.8568 
  35   1.0000      -0.421624       -11.4730 
  36   1.0000      -0.392956       -10.6929 
  37   1.0000      -0.390849       -10.6355 
  38   1.0000      -0.381178       -10.3724 
  39   1.0000      -0.367521       -10.0008 
  40   1.0000      -0.363071        -9.8797 
  41   1.0000      -0.358843        -9.7646 
  42   1.0000      -0.332500        -9.0478 
  43   1.0000      -0.330536        -8.9944 
  44   1.0000      -0.314951        -8.5703 
  45   1.0000      -0.305457        -8.3119 
  46   1.0000      -0.296561        -8.0698 
  47   1.0000      -0.288014        -7.8373 
  48   1.0000      -0.224129        -6.0989 
  49   1.0000      -0.193246        -5.2585 
  50   1.0000      -0.171930        -4.6784 
  51   1.0000      -0.171597        -4.6694 
  52   1.0000      -0.170993        -4.6529 
  53   1.0000      -0.170937        -4.6514 
  54   1.0000      -0.162098        -4.4109 
  55   0.0000      -0.081428        -2.2158 
  56   0.0000      -0.044964        -1.2235 
  57   0.0000      -0.033378        -0.9083 
  58   0.0000      -0.011018        -0.2998 
  59   0.0000      -0.004878        -0.1327 
  60   0.0000       0.010702         0.2912 
  61   0.0000       0.023366         0.6358 
  62   0.0000       0.037991         1.0338 
  63   0.0000       0.042910         1.1676 
  64   0.0000       0.048419         1.3176 
  65   0.0000       0.059027         1.6062 
  66   0.0000       0.062688         1.7058 
  67   0.0000       0.079385         2.1602 
  68   0.0000       0.095797         2.6068 
  69   0.0000       0.100780         2.7424 
  70   0.0000       0.102218         2.7815 
  71   0.0000       0.112523         3.0619 
[...]
     34      -0.000028   0.000102  -0.000144   0.000490  -0.012495  -0.062541
     35       0.000083  -0.000040   0.000020   0.000400  -0.005516  -0.034689
     36      -0.000112  -0.000020  -0.000004  -0.000783   0.000436  -0.001682
     37       0.000050  -0.000004  -0.000026  -0.000859  -0.000652   0.001777
     38      -0.000059   0.000004  -0.000030  -0.000601   0.000074  -0.000365
     39       0.000055   0.000008   0.000004   0.000390  -0.000245   0.000355
     40      -0.000020  -0.000014   0.000031   0.000035   0.000136  -0.000176
     41       0.000030  -0.000001   0.000012   0.000214  -0.000101   0.000121
     42      -0.000300   0.000007   0.000023  -0.000298  -0.000384   0.000005
     43       0.000031  -0.000044   0.000071  -0.011984  -0.000103  -0.000515
     44      -0.000076   0.000081   0.000098  -0.002478  -0.000218  -0.000109
     45       0.004003   0.001891  -0.014711  -0.483474   0.018223  -0.008402
     46       0.004683   0.000992  -0.018877  -0.731448   0.028998  -0.013217
     47       0.004463   0.002716  -0.014166  -0.470031   0.018198  -0.008247
     48       0.004790   0.000151   0.005586  -0.000987   0.002415  -0.000355
     49       0.520684  -0.379922   0.477013  -0.006611  -0.014135   0.000341
     50      -0.196609   0.156958  -0.196075   0.001680   0.007167  -0.000345
     51      -0.051226  -0.060962   0.060977  -0.005114   0.000593  -0.000708
     52      -0.293190  -0.319111   0.342803  -0.014642  -0.002310  -0.000977
     53      -0.335224  -0.389685   0.419054  -0.020055  -0.001027  -0.001589
     54       0.007927   0.012707   0.014067  -0.000862  -0.000396  -0.000094
     55       0.341440   0.601784   0.487833  -0.012829  -0.003969  -0.000502
     56      -0.121530  -0.240230  -0.194756   0.005470   0.001571   0.000180
     57      -0.069142   0.043899   0.041464  -0.000613  -0.000313   0.000210
     58      -0.373955   0.228345   0.236443  -0.005291  -0.003257   0.001128
     59      -0.456140   0.300977   0.305142  -0.006696  -0.004719   0.001364
     60       0.002103  -0.001351   0.006091   0.013705   0.305878  -0.062816
     61      -0.004533   0.001868  -0.013238  -0.038837  -0.919880   0.178863
     62       0.002150  -0.001568   0.003181   0.005660   0.115499  -0.024563
     63       0.001048  -0.000866   0.001461  -0.005251   0.101886   0.521947
     64       0.000966  -0.001311   0.002240  -0.007487   0.146918   0.729229
     65       0.000717  -0.000606   0.001346  -0.003832   0.076443   0.389059
     66      -0.000071   0.000034   0.000037   0.000007  -0.000049  -0.000020
     67       0.000005  -0.000007  -0.000013  -0.000008   0.000046  -0.000045
     68      -0.000039   0.000013   0.000022  -0.000019  -0.000000  -0.000049
                 66         67         68    
      0      -0.000058   0.000012   0.035090
      1      -0.000018   0.000011   0.041013
      2      -0.000028   0.000009   0.030155
      3       0.000051  -0.000012   0.001855
      4      -0.000032  -0.000001   0.001579
      5       0.000015  -0.000011   0.001516
      6      -0.000083   0.000032  -0.000085
      7       0.000019   0.000002  -0.001833
      8      -0.000078   0.000021  -0.000454
      9       0.000012  -0.000008  -0.000027
     10      -0.000049  -0.000044   0.000492
     11       0.000114  -0.000012   0.000114
     12      -0.000571  -0.000015   0.000084
     13       0.000112  -0.000299  -0.000038
     14      -0.000399  -0.000072  -0.000084
     15      -0.001938   0.000304  -0.000070
     16      -0.000617   0.003088  -0.000045
     17       0.002838   0.000802   0.000062
     18       0.014930   0.006366   0.000070
     19      -0.014699   0.078003  -0.000030
     20       0.051273   0.021212   0.000030
     21       0.000484   0.000108   0.000311
     22      -0.000005  -0.000065   0.000086
     23       0.000170   0.000094   0.000200
     24      -0.043202   0.035748  -0.000163
     25       0.667055  -0.669079   0.000790
     26      -0.200128   0.243486  -0.000180
     27      -0.140377  -0.125288  -0.000222
     28      -0.460971  -0.421102  -0.000402
     29      -0.526694  -0.539957  -0.000241
     30      -0.000028  -0.000022   0.000006
     31       0.000027   0.000014  -0.000129
     32      -0.000042  -0.000015  -0.000084
     33       0.000020   0.000005   0.000118
     34       0.000017  -0.000007   0.000165
     35       0.000024   0.000011   0.000125
     36       0.000018   0.000003  -0.000490
     37       0.000003   0.000004  -0.000776
     38       0.000018   0.000001  -0.000447
     39      -0.000015  -0.000001  -0.000073
     40       0.000001   0.000002   0.000016
     41      -0.000010  -0.000002  -0.000039
     42       0.000597  -0.000145  -0.573831
     43       0.000532  -0.000162  -0.653330
     44       0.000442  -0.000141  -0.489866
     45       0.000097  -0.000060   0.001624
     46       0.000242  -0.000090   0.007851
     47       0.000257  -0.000085   0.002607
     48       0.002314  -0.001529   0.000088
     49       0.000420   0.001117  -0.000044
     50      -0.001092   0.000391   0.000192
     51       0.002364   0.001741   0.000071
     52       0.000097   0.000961   0.000134
     53      -0.000841   0.000211   0.000439
     54       0.002211  -0.000479  -0.000025
     55       0.014035  -0.016734   0.000146
     56      -0.003453   0.004953  -0.000151
     57      -0.000038  -0.002073  -0.000030
     58      -0.010341  -0.011778   0.000170
     59      -0.009845  -0.012355   0.000002
     60       0.000038   0.000028  -0.000223
     61      -0.000238  -0.000085   0.000614
     62       0.000105   0.000030   0.000032
     63      -0.000165   0.000025  -0.000583
     64      -0.000229   0.000022   0.000367
     65      -0.000149  -0.000013  -0.000169
     66      -0.000010  -0.000002  -0.000005
     67       0.000002   0.000000  -0.000003
     68      -0.000005  -0.000002  -0.000003


-----------
IR SPECTRUM
-----------

 Mode   freq       eps      Int      T**2         TX        TY        TZ
       cm**-1   L/(mol*cm) km/mol    a.u.
----------------------------------------------------------------------------
  6:     45.46   0.000383    1.94  0.002629  (-0.030250 -0.028363  0.030157)
  7:     52.55   0.000773    3.90  0.004588  (-0.045528  0.014758  0.047928)
  8:     58.84   0.000977    4.94  0.005179  (-0.026758  0.056779  0.035207)
  9:     93.70   0.000452    2.28  0.001504  (-0.002231 -0.001189 -0.038700)
 10:    100.04   0.000170    0.86  0.000531  ( 0.006764  0.021006 -0.006626)
 11:    124.09   0.000192    0.97  0.000483  (-0.018990 -0.008381  0.007195)
 12:    214.75   0.015271   77.17  0.022190  ( 0.136988 -0.015416 -0.056454)
 13:    253.62   0.007415   37.47  0.009124  ( 0.081351 -0.003128 -0.049961)
 14:    286.91   0.001973    9.97  0.002146  (-0.011511  0.039668  0.020977)
 15:    296.54   0.000282    1.42  0.000297  ( 0.013429  0.010580 -0.002104)
 16:    300.27   0.004765   24.08  0.004952  ( 0.008967 -0.065114 -0.025140)
 17:    313.22   0.001788    9.04  0.001782  ( 0.024036 -0.033971  0.007071)
 18:    329.05   0.001121    5.67  0.001063  (-0.007132 -0.028210 -0.014720)
 19:    374.22   0.001054    5.33  0.000879  (-0.019989 -0.018584 -0.011569)
 20:    398.42   0.009100   45.99  0.007128  (-0.013527  0.077030  0.031797)
 21:    433.74   0.004930   24.92  0.003547  ( 0.020212  0.013391 -0.054399)
 22:    445.11   0.000524    2.65  0.000368  ( 0.007263 -0.017156  0.004539)
 23:    485.66   0.011648   58.87  0.007485  ( 0.046699  0.012859 -0.071684)
 24:    525.50   0.000570    2.88  0.000339  (-0.013212 -0.011486  0.005664)
 25:    566.16   0.002960   14.96  0.001632  ( 0.014327 -0.036098 -0.011101)
 26:    621.92   0.002185   11.04  0.001096  ( 0.022064  0.001108 -0.024664)
 27:    703.24   0.004146   20.95  0.001840  ( 0.042839  0.001991 -0.000722)
 28:    725.63   0.000048    0.24  0.000020  ( 0.003360 -0.001030  0.002853)
 29:    746.81   0.000428    2.16  0.000179  (-0.012839 -0.003348 -0.001637)
 30:    769.05   0.030142  152.33  0.012231  (-0.110096 -0.008779  0.005735)
 31:    791.62   0.041122  207.81  0.016211  (-0.124222  0.027456 -0.005081)
 32:    816.25   0.003882   19.62  0.001484  ( 0.007432 -0.002790 -0.037698)
 33:    824.83   0.003251   16.43  0.001230  ( 0.000452 -0.004431  0.034788)
 34:    896.67   0.000510    2.58  0.000177  ( 0.001814 -0.001693 -0.013084)
 35:    926.41   0.003108   15.71  0.001047  ( 0.024422 -0.021152  0.001754)
 36:    945.30   0.027675  139.86  0.009136  (-0.092805  0.013548 -0.018434)
 37:    955.07   0.000770    3.89  0.000252  (-0.014071 -0.005771 -0.004500)
 38:   1070.02   0.009042   45.69  0.002637  (-0.012011  0.049785  0.003759)
 39:   1087.68   0.004085   20.64  0.001172  (-0.024881  0.016147 -0.017090)
 40:   1096.51   0.001814    9.17  0.000516  ( 0.001616 -0.022581  0.001954)
 41:   1121.29   0.022084  111.60  0.006146  (-0.048479  0.061597 -0.001285)
 42:   1159.64   0.000489    2.47  0.000132  ( 0.008708 -0.001491  0.007311)
 43:   1194.40   0.006188   31.27  0.001617  (-0.014383  0.035972 -0.010770)
 44:   1242.94   0.004208   21.27  0.001057  ( 0.024548 -0.021255 -0.001465)
 45:   1252.66   0.000430    2.17  0.000107  (-0.008542  0.000259 -0.005830)
 46:   1288.95   0.006467   32.68  0.001566  ( 0.016527 -0.034386 -0.010498)
 47:   1322.22   0.006882   34.78  0.001624  (-0.038193  0.006862 -0.010881)
 48:   1336.63   0.000641    3.24  0.000150  (-0.003394  0.001867  0.011607)
 49:   1342.65   0.000455    2.30  0.000106  (-0.004553  0.008261  0.004087)
 50:   1389.25   0.003103   15.68  0.000697  (-0.009740  0.022788  0.009107)
 51:   1426.99   0.012627   63.81  0.002761  ( 0.018128 -0.046630 -0.016070)
 52:   1428.69   0.014318   72.36  0.003127  ( 0.036200 -0.042367 -0.004689)
 53:   1443.71   0.001144    5.78  0.000247  (-0.004730  0.007839  0.012782)
 54:   1471.40   0.001597    8.07  0.000339  (-0.009268  0.000538  0.015891)
 55:   1539.61   0.028769  145.39  0.005831  (-0.044032  0.060352 -0.015811)
 56:   1551.08   0.039152  197.86  0.007877  ( 0.078800 -0.021370  0.034797)
 57:   1611.89   0.005359   27.08  0.001038  ( 0.009272 -0.007991  0.029794)
 58:   1855.38   0.013358   67.51  0.002247  (-0.013938 -0.009878  0.044215)
 59:   2959.37   0.001536    7.76  0.000162  ( 0.009588 -0.003636  0.007535)
 60:   2970.54   0.007548   38.14  0.000793  ( 0.009444 -0.005986  0.025844)
 61:   2999.53   0.000227    1.15  0.000024  (-0.000341 -0.001158  0.004712)
 62:   3023.79   0.004383   22.15  0.000452  (-0.003304 -0.020536 -0.004430)
 63:   3062.27   0.003172   16.03  0.000323  ( 0.001147  0.015801  0.008503)
 64:   3088.12   0.000402    2.03  0.000041  (-0.002098  0.004666 -0.003808)
 65:   3121.08   0.000020    0.10  0.000002  (-0.000389  0.001274  0.000509)
 66:   3406.01   0.000665    3.36  0.000061  (-0.007686  0.000842 -0.001080)
 67:   3487.17   0.000195    0.99  0.000017  ( 0.000106 -0.004077 -0.000905)
 68:   3652.85   0.014118   71.35  0.001206  ( 0.001193 -0.032866 -0.011157)

* The epsilon (eps) is given for a Dirac delta lineshape.
** The dipole moment derivative (T) already includes vibrational overlap.

The first frequency considered to be a vibration is 6
The total number of vibrations considered is 63


--------------------------
THERMOCHEMISTRY AT 298.15K
--------------------------

Temperature         ... 298.15 K
Pressure            ... 1.00 atm
Total Mass          ... 216.73 AMU

Throughout the following assumptions are being made:
  (1) The electronic state is orbitally nondegenerate
      but the spin degeneracy is treated
  (2) There are no thermally accessible electronically excited states
  (3) Hindered rotations indicated by low frequency modes are not
      treated as such but are treated as vibrations and this may
      cause some error
  (4) All equations used are the standard statistical mechanics
      equations for an ideal gas
  (5) All vibrations are strictly harmonic

freq.      45.46  E(vib)   ...       0.53 
freq.      52.55  E(vib)   ...       0.52 
freq.      58.84  E(vib)   ...       0.51 
freq.      93.70  E(vib)   ...       0.47 
freq.     100.04  E(vib)   ...       0.46 
freq.     124.09  E(vib)   ...       0.43 
freq.     214.75  E(vib)   ...       0.34 
freq.     253.62  E(vib)   ...       0.30 
freq.     286.91  E(vib)   ...       0.27 
freq.     296.54  E(vib)   ...       0.27 
freq.     300.27  E(vib)   ...       0.26 
freq.     313.22  E(vib)   ...       0.25 
freq.     329.05  E(vib)   ...       0.24 
freq.     374.22  E(vib)   ...       0.21 
freq.     398.42  E(vib)   ...       0.20 
freq.     433.74  E(vib)   ...       0.17 
freq.     445.11  E(vib)   ...       0.17 
freq.     485.66  E(vib)   ...       0.15 
freq.     525.50  E(vib)   ...       0.13 
freq.     566.16  E(vib)   ...       0.11 
freq.     621.92  E(vib)   ...       0.09 
freq.     703.24  E(vib)   ...       0.07 
freq.     725.63  E(vib)   ...       0.06 
freq.     746.81  E(vib)   ...       0.06 
freq.     769.05  E(vib)   ...       0.06 
freq.     791.62  E(vib)   ...       0.05 
freq.     816.25  E(vib)   ...       0.05 
freq.     824.83  E(vib)   ...       0.04 
freq.     896.67  E(vib)   ...       0.03 
freq.     926.41  E(vib)   ...       0.03 
freq.     945.30  E(vib)   ...       0.03 
freq.     955.07  E(vib)   ...       0.03 
freq.    1070.02  E(vib)   ...       0.02 
freq.    1087.68  E(vib)   ...       0.02 
freq.    1096.51  E(vib)   ...       0.02 
freq.    1121.29  E(vib)   ...       0.01 
freq.    1159.64  E(vib)   ...       0.01 
freq.    1194.40  E(vib)   ...       0.01 
freq.    1242.94  E(vib)   ...       0.01 
freq.    1252.66  E(vib)   ...       0.01 
freq.    1288.95  E(vib)   ...       0.01 
freq.    1322.22  E(vib)   ...       0.01 
freq.    1336.63  E(vib)   ...       0.01 
freq.    1342.65  E(vib)   ...       0.01 
freq.    1389.25  E(vib)   ...       0.00 
freq.    1426.99  E(vib)   ...       0.00 
freq.    1428.69  E(vib)   ...       0.00 
freq.    1443.71  E(vib)   ...       0.00 
freq.    1471.40  E(vib)   ...       0.00 
freq.    1539.61  E(vib)   ...       0.00 
freq.    1551.08  E(vib)   ...       0.00 
freq.    1611.89  E(vib)   ...       0.00 
freq.    1855.38  E(vib)   ...       0.00 
freq.    2959.37  E(vib)   ...       0.00 
freq.    2970.54  E(vib)   ...       0.00 
freq.    2999.53  E(vib)   ...       0.00 
freq.    3023.79  E(vib)   ...       0.00 
freq.    3062.27  E(vib)   ...       0.00 
freq.    3088.12  E(vib)   ...       0.00 
freq.    3121.08  E(vib)   ...       0.00 
freq.    3406.01  E(vib)   ...       0.00 
freq.    3487.17  E(vib)   ...       0.00 
freq.    3652.85  E(vib)   ...       0.00 

------------
INNER ENERGY
------------

The inner energy is: U= E(el) + E(ZPE) + E(vib) + E(rot) + E(trans)
    E(el)   - is the total energy from the electronic structure calculation
              = E(kin-el) + E(nuc-el) + E(el-el) + E(nuc-nuc)
    E(ZPE)  - the the zero temperature vibrational energy from the frequency calculation
    E(vib)  - the the finite temperature correction to E(ZPE) due to population
              of excited vibrational states
    E(rot)  - is the rotational thermal energy
    E(trans)- is the translational thermal energy

Summary of contributions to the inner energy U:
Electronic energy                ...  -2156.52202785 Eh
Zero point energy                ...      0.17183073 Eh     107.83 kcal/mol
Thermal vibrational correction   ...      0.01078125 Eh       6.77 kcal/mol
Thermal rotational correction    ...      0.00141627 Eh       0.89 kcal/mol
Thermal translational correction ...      0.00141627 Eh       0.89 kcal/mol
-----------------------------------------------------------------------
Total thermal energy                  -2156.33658332 Eh


Summary of corrections to the electronic energy:
(perhaps to be used in another calculation)
Total thermal correction                  0.01361380 Eh       8.54 kcal/mol
Non-thermal (ZPE) correction              0.17183073 Eh     107.83 kcal/mol
-----------------------------------------------------------------------
Total correction                          0.18544453 Eh     116.37 kcal/mol


--------
ENTHALPY
--------

The enthalpy is H = U + kB*T
                kB is Boltzmann's constant
Total free energy                 ...  -2156.33658332 Eh 
Thermal Enthalpy correction       ...      0.00094421 Eh       0.59 kcal/mol
-----------------------------------------------------------------------
Total Enthalpy                    ...  -2156.33563911 Eh


Note: Only C1 symmetry has been detected, increase convergence thresholds 
      if your molecule has a higher symmetry. Symmetry factor of 1.0 is   
      used for the rotational entropy correction. 
 

Note: Rotational entropy computed according to Herzberg 
Infrared and Raman Spectra, Chapter V,1, Van Nostrand Reinhold, 1945 
Point Group:  C1, Symmetry Number:   1  
Rotational constants in cm-1:     0.038259     0.016969     0.013735 

Vibrational entropy computed according to the QRRHO of S. Grimme
Chem.Eur.J. 2012 18 9955


-------
ENTROPY
-------

The entropy contributions are T*S = T*(S(el)+S(vib)+S(rot)+S(trans))
     S(el)   - electronic entropy
     S(vib)  - vibrational entropy
     S(rot)  - rotational entropy
     S(trans)- translational entropy
The entropies will be listed as multiplied by the temperature to get
units of energy

Electronic entropy                ...      0.00065446 Eh      0.41 kcal/mol
Vibrational entropy               ...      0.01874536 Eh     11.76 kcal/mol
Rotational entropy                ...      0.01500007 Eh      9.41 kcal/mol
Translational entropy             ...      0.01996671 Eh     12.53 kcal/mol
-----------------------------------------------------------------------
Final entropy term                ...      0.05436659 Eh     34.12 kcal/mol

In case the symmetry of your molecule has not been determined correctly
or in case you have a reason to use a different symmetry number we print 
out the resulting rotational entropy values for sn=1,12 :
 --------------------------------------------------------
|  sn= 1 | S(rot)=       0.01500007 Eh      9.41 kcal/mol|
|  sn= 2 | S(rot)=       0.01434561 Eh      9.00 kcal/mol|
|  sn= 3 | S(rot)=       0.01396278 Eh      8.76 kcal/mol|
|  sn= 4 | S(rot)=       0.01369115 Eh      8.59 kcal/mol|
|  sn= 5 | S(rot)=       0.01348047 Eh      8.46 kcal/mol|
|  sn= 6 | S(rot)=       0.01330832 Eh      8.35 kcal/mol|
|  sn= 7 | S(rot)=       0.01316278 Eh      8.26 kcal/mol|
|  sn= 8 | S(rot)=       0.01303670 Eh      8.18 kcal/mol|
|  sn= 9 | S(rot)=       0.01292549 Eh      8.11 kcal/mol|
|  sn=10 | S(rot)=       0.01282601 Eh      8.05 kcal/mol|
|  sn=11 | S(rot)=       0.01273602 Eh      7.99 kcal/mol|
|  sn=12 | S(rot)=       0.01265386 Eh      7.94 kcal/mol|
 --------------------------------------------------------


-------------------
GIBBS FREE ENERGY
-------------------

The Gibbs free energy is G = H - T*S

Total enthalpy                    ...  -2156.33563911 Eh 
Total entropy correction          ...     -0.05436659 Eh    -34.12 kcal/mol
-----------------------------------------------------------------------
Final Gibbs free energy         ...  -2156.39000571 Eh

For completeness - the Gibbs free energy minus the electronic energy
G-E(el)                           ...      0.13202215 Eh     82.84 kcal/mol



Timings for individual modules:

Sum of individual times         ...     1473.640 sec (=  24.561 min)
GTO integral calculation        ...        4.459 sec (=   0.074 min)   0.3 %
SCF iterations                  ...       55.039 sec (=   0.917 min)   3.7 %
SCF Gradient evaluation         ...       10.803 sec (=   0.180 min)   0.7 %
Geometry relaxation             ...        0.103 sec (=   0.002 min)   0.0 %
Numerical frequency calculation ...     1403.235 sec (=  23.387 min)  95.2 %



                             ****ORCA TERMINATED NORMALLY****
TOTAL RUN TIME: 0 days 1 hours 48 minutes 30 seconds 41 msec
