
                                 *****************
                                 * O   R   C   A *
                                 *****************

                                            #,                                       
                                            ###                                      
                                            ####                                     
                                            #####                                    
                                            ######                                   
                                           ########,                                 
                                     ,,################,,,,,                         
                               ,,#################################,,                 
                          ,,##########################################,,             
                       ,#########################################, ''#####,          
                    ,#############################################,,   '####,        
                  ,##################################################,,,,####,       
                ,###########''''           ''''###############################       
              ,#####''   ,,,,##########,,,,          '''####'''          '####       
            ,##' ,,,,###########################,,,                        '##       
           ' ,,###''''                  '''############,,,                           
         ,,##''                                '''############,,,,        ,,,,,,###''
      ,#''                                            '''#######################'''  
     '                                                          ''''####''''         
             ,#######,   #######,   ,#######,      ##                                
            ,#'     '#,  ##    ##  ,#'     '#,    #''#        ######   ,####,        
            ##       ##  ##   ,#'  ##            #'  '#       #        #'  '#        
            ##       ##  #######   ##           ,######,      #####,   #    #        
            '#,     ,#'  ##    ##  '#,     ,#' ,#      #,         ##   #,  ,#        
             '#######'   ##     ##  '#######'  #'      '#     #####' # '####'        



                  #######################################################
                  #                        -***-                        #
                  #          Department of theory and spectroscopy      #
                  #    Directorship and core code : Frank Neese         #
                  #        Max Planck Institute fuer Kohlenforschung    #
                  #                Kaiser Wilhelm Platz 1               #
                  #                 D-45470 Muelheim/Ruhr               #
                  #                      Germany                        #
                  #                                                     #
                  #                  All rights reserved                #
                  #                        -***-                        #
                  #######################################################


                         Program Version 5.0.2 -  RELEASE  -


 With contributions from (in alphabetic order):
   Daniel Aravena         : Magnetic Suceptibility
   Michael Atanasov       : Ab Initio Ligand Field Theory (pilot matlab implementation)
   Alexander A. Auer      : GIAO ZORA, VPT2 properties, NMR spectrum
   Ute Becker             : Parallelization
   Giovanni Bistoni       : ED, misc. LED, open-shell LED, HFLD
   Martin Brehm           : Molecular dynamics
   Dmytro Bykov           : SCF Hessian
   Vijay G. Chilkuri      : MRCI spin determinant printing, contributions to CSF-ICE
   Dipayan Datta          : RHF DLPNO-CCSD density
   Achintya Kumar Dutta   : EOM-CC, STEOM-CC
   Dmitry Ganyushin       : Spin-Orbit,Spin-Spin,Magnetic field MRCI
   Miquel Garcia          : C-PCM and meta-GGA Hessian, CC/C-PCM, Gaussian charge scheme
   Yang Guo               : DLPNO-NEVPT2, F12-NEVPT2, CIM, IAO-localization
   Andreas Hansen         : Spin unrestricted coupled pair/coupled cluster methods
   Benjamin Helmich-Paris : MC-RPA, TRAH-SCF, COSX integrals
   Lee Huntington         : MR-EOM, pCC
   Robert Izsak           : Overlap fitted RIJCOSX, COSX-SCS-MP3, EOM
   Marcus Kettner         : VPT2
   Christian Kollmar      : KDIIS, OOCD, Brueckner-CCSD(T), CCSD density, CASPT2, CASPT2-K
   Simone Kossmann        : Meta GGA functionals, TD-DFT gradient, OOMP2, MP2 Hessian
   Martin Krupicka        : Initial AUTO-CI
   Lucas Lang             : DCDCAS
   Marvin Lechner         : AUTO-CI (C++ implementation), FIC-MRCC
   Dagmar Lenk            : GEPOL surface, SMD
   Dimitrios Liakos       : Extrapolation schemes; Compound Job, initial MDCI parallelization
   Dimitrios Manganas     : Further ROCIS development; embedding schemes
   Dimitrios Pantazis     : SARC Basis sets
   Anastasios Papadopoulos: AUTO-CI, single reference methods and gradients
   Taras Petrenko         : DFT Hessian,TD-DFT gradient, ASA, ECA, R-Raman, ABS, FL, XAS/XES, NRVS
   Peter Pinski           : DLPNO-MP2, DLPNO-MP2 Gradient
   Christoph Reimann      : Effective Core Potentials
   Marius Retegan         : Local ZFS, SOC
   Christoph Riplinger    : Optimizer, TS searches, QM/MM, DLPNO-CCSD(T), (RO)-DLPNO pert. Triples
   Tobias Risthaus        : Range-separated hybrids, TD-DFT gradient, RPA, STAB
   Michael Roemelt        : Original ROCIS implementation
   Masaaki Saitow         : Open-shell DLPNO-CCSD energy and density
   Barbara Sandhoefer     : DKH picture change effects
   Avijit Sen             : IP-ROCIS
   Kantharuban Sivalingam : CASSCF convergence, NEVPT2, FIC-MRCI
   Bernardo de Souza      : ESD, SOC TD-DFT
   Georgi Stoychev        : AutoAux, RI-MP2 NMR, DLPNO-MP2 response
   Willem Van den Heuvel  : Paramagnetic NMR
   Boris Wezisla          : Elementary symmetry handling
   Frank Wennmohs         : Technical directorship


 We gratefully acknowledge several colleagues who have allowed us to
 interface, adapt or use parts of their codes:
   Stefan Grimme, W. Hujo, H. Kruse, P. Pracht,  : VdW corrections, initial TS optimization,
                  C. Bannwarth, S. Ehlert          DFT functionals, gCP, sTDA/sTD-DF
   Ed Valeev, F. Pavosevic, A. Kumar             : LibInt (2-el integral package), F12 methods
   Garnet Chan, S. Sharma, J. Yang, R. Olivares  : DMRG
   Ulf Ekstrom                                   : XCFun DFT Library
   Mihaly Kallay                                 : mrcc  (arbitrary order and MRCC methods)
   Jiri Pittner, Ondrej Demel                    : Mk-CCSD
   Frank Weinhold                                : gennbo (NPA and NBO analysis)
   Christopher J. Cramer and Donald G. Truhlar   : smd solvation model
   Lars Goerigk                                  : TD-DFT with DH, B97 family of functionals
   V. Asgeirsson, H. Jonsson                     : NEB implementation
   FAccTs GmbH                                   : IRC, NEB, NEB-TS, DLPNO-Multilevel, CI-OPT
                                                   MM, QMMM, 2- and 3-layer-ONIOM, Crystal-QMMM,
                                                   LR-CPCM, SF, NACMEs, symmetry and pop. for TD-DFT,
                                                   nearIR, NL-DFT gradient (VV10), updates on ESD,
                                                   ML-optimized integration grids
   S Lehtola, MJT Oliveira, MAL Marques          : LibXC Library
   Liviu Ungur et al                             : ANISO software


 Your calculation uses the libint2 library for the computation of 2-el integrals
 For citations please refer to: http://libint.valeyev.net

 Your ORCA version has been built with support for libXC version: 5.1.0
 For citations please refer to: https://tddft.org/programs/libxc/

 This ORCA versions uses:
   CBLAS   interface :  Fast vector & matrix operations
   LAPACKE interface :  Fast linear algebra routines
   SCALAPACK package :  Parallel linear algebra routines
   Shared memory     :  Shared parallel matrices
   BLAS/LAPACK       :  OpenBLAS 0.3.15  USE64BITINT DYNAMIC_ARCH NO_AFFINITY Haswell SINGLE_THREADED
        Core in use  :  Haswell
   Copyright (c) 2011-2014, The OpenBLAS Project


Your calculation utilizes the atom-pairwise dispersion correction
with the Becke-Johnson damping scheme (D3BJ)
Cite in your paper:
S.Grimme, S.Ehrlich, L.Goerigk, J Comput Chem, (2011), 32, 1456–1465 
S.Grimme, J.Antony, S.Ehrlich and H.Krieg, J.Chem.Phys., 132, (2010), 154104 
   

================================================================================

----- Orbital basis set information -----
Your calculation utilizes the basis: def2-TZVP
   F. Weigend and R. Ahlrichs, Phys. Chem. Chem. Phys. 7, 3297 (2005).

----- AuxJ basis set information -----
Your calculation utilizes the auxiliary basis: def2/J
   F. Weigend, Phys. Chem. Chem. Phys. 8, 1057 (2006).

================================================================================
                                        WARNINGS
                       Please study these warnings very carefully!
================================================================================


WARNING: your system is open-shell and RHF/RKS was chosen
  ===> : WILL SWITCH to UHF/UKS


WARNING: The environment variable RSH_COMMAND is not set!
  ===> : All Displacements for the Numerical Hessian or Gradient calculation
         will be started on localhost

INFO   : the flag for use of the SHARK integral package has been found!

Your calculation utilizes the atom-pairwise dispersion correction
with the Becke-Johnson damping scheme (D3BJ)
Cite in your paper:
S.Grimme, S.Ehrlich, L.Goerigk, J Comput Chem, (2011), 32, 1456–1465 
S.Grimme, J.Antony, S.Ehrlich and H.Krieg, J.Chem.Phys., 132, (2010), 154104 
   

================================================================================

----- Orbital basis set information -----
Your calculation utilizes the basis: def2-TZVP
   F. Weigend and R. Ahlrichs, Phys. Chem. Chem. Phys. 7, 3297 (2005).

----- AuxJ basis set information -----
Your calculation utilizes the auxiliary basis: def2/J
   F. Weigend, Phys. Chem. Chem. Phys. 8, 1057 (2006).

================================================================================
                                        WARNINGS
                       Please study these warnings very carefully!
================================================================================


WARNING: MOInp is set but Guess=PModel. MOInp will be ignored!
         To read the initial guess from a file you must also specify
         'MORead' in the simple input or 'Guess MORead' in the %scf block


WARNING: The environment variable RSH_COMMAND is not set!
  ===> : All Displacements for the Numerical Hessian or Gradient calculation
         will be started on localhost

INFO   : the flag for use of the SHARK integral package has been found!

Your calculation utilizes the atom-pairwise dispersion correction
with the Becke-Johnson damping scheme (D3BJ)
Cite in your paper:
S.Grimme, S.Ehrlich, L.Goerigk, J Comput Chem, (2011), 32, 1456–1465 
S.Grimme, J.Antony, S.Ehrlich and H.Krieg, J.Chem.Phys., 132, (2010), 154104 
   

================================================================================

----- Orbital basis set information -----
Your calculation utilizes the basis: def2-TZVP
   F. Weigend and R. Ahlrichs, Phys. Chem. Chem. Phys. 7, 3297 (2005).

----- AuxJ basis set information -----
Your calculation utilizes the auxiliary basis: def2/J
   F. Weigend, Phys. Chem. Chem. Phys. 8, 1057 (2006).

================================================================================
                                        WARNINGS
                       Please study these warnings very carefully!
================================================================================


WARNING: MOInp is set but Guess=PModel. MOInp will be ignored!
         To read the initial guess from a file you must also specify
         'MORead' in the simple input or 'Guess MORead' in the %scf block


WARNING: The environment variable RSH_COMMAND is not set!
  ===> : All Displacements for the Numerical Hessian or Gradient calculation
         will be started on localhost

INFO   : the flag for use of the SHARK integral package has been found!

Your calculation utilizes the atom-pairwise dispersion correction
with the Becke-Johnson damping scheme (D3BJ)
Cite in your paper:
S.Grimme, S.Ehrlich, L.Goerigk, J Comput Chem, (2011), 32, 1456–1465 
S.Grimme, J.Antony, S.Ehrlich and H.Krieg, J.Chem.Phys., 132, (2010), 154104 
   

================================================================================

----- Orbital basis set information -----
Your calculation utilizes the basis: def2-TZVP
   F. Weigend and R. Ahlrichs, Phys. Chem. Chem. Phys. 7, 3297 (2005).

----- AuxJ basis set information -----
Your calculation utilizes the auxiliary basis: def2/J
   F. Weigend, Phys. Chem. Chem. Phys. 8, 1057 (2006).

================================================================================
                                        WARNINGS
                       Please study these warnings very carefully!
================================================================================


WARNING: MOInp is set but Guess=PModel. MOInp will be ignored!
         To read the initial guess from a file you must also specify
         'MORead' in the simple input or 'Guess MORead' in the %scf block


WARNING: The environment variable RSH_COMMAND is not set!
  ===> : All Displacements for the Numerical Hessian or Gradient calculation
         will be started on localhost

INFO   : the flag for use of the SHARK integral package has been found!

Your calculation utilizes the atom-pairwise dispersion correction
with the Becke-Johnson damping scheme (D3BJ)
Cite in your paper:
S.Grimme, S.Ehrlich, L.Goerigk, J Comput Chem, (2011), 32, 1456–1465 
S.Grimme, J.Antony, S.Ehrlich and H.Krieg, J.Chem.Phys., 132, (2010), 154104 
   

================================================================================

----- Orbital basis set information -----
Your calculation utilizes the basis: def2-TZVP
   F. Weigend and R. Ahlrichs, Phys. Chem. Chem. Phys. 7, 3297 (2005).

----- AuxJ basis set information -----
Your calculation utilizes the auxiliary basis: def2/J
   F. Weigend, Phys. Chem. Chem. Phys. 8, 1057 (2006).

================================================================================
                                        WARNINGS
                       Please study these warnings very carefully!
================================================================================


WARNING: MOInp is set but Guess=PModel. MOInp will be ignored!
         To read the initial guess from a file you must also specify
         'MORead' in the simple input or 'Guess MORead' in the %scf block


WARNING: The environment variable RSH_COMMAND is not set!
  ===> : All Displacements for the Numerical Hessian or Gradient calculation
         will be started on localhost

INFO   : the flag for use of the SHARK integral package has been found!

================================================================================
                                       INPUT FILE
================================================================================
NAME = ex.inp
|  1> # preopt in PBE-D3
|  2> 
|  3> ! B3LYP D3 TightSCF def2-TZVP slowconv PModel cpcm(water) opt numfreq
|  4> %pal nprocs=16 end
|  5> %geom maxiter=150 end
|  6> %elprop Polar 1 end
|  7> %base "neutral"
|  8> *xyz 0 2
|  9>   C   -0.50330888339685     -0.36622989460744     -1.50264592604726
| 10>   C   -2.08220337085055      1.45481402304829     -0.06812263994748
| 11>   C   -1.80478312739886     -0.08127567823641     -1.93219256435024
| 12>   C   0.02771387494132      0.22243073067180     -0.34928021631862
| 13>   C   -0.77081250790830      1.14451288174966      0.36906287978685
| 14>   C   -2.60086274180758      0.81754881455444     -1.20534491481846
| 15>   O   -3.93000293075932      1.01004866621818     -1.53116279257847
| 16>   O   -2.40206796189385     -0.65842136101786     -3.01421913203989
| 17>   C   1.39387267229053     -0.15067008683338      0.15253581285128
| 18>   C   1.35957540527774     -1.13904336061899      1.34403917491920
| 19>   N   0.77234944595458     -2.45369470517789      1.08553039173842
| 20>   H   0.09314121133948     -1.08362183538547     -2.07199435092125
| 21>   H   -2.67720481474820      2.22213236791043      0.42873932225945
| 22>   H   -0.34034363863357      1.69933963761379      1.20501627535282
| 23>   H   -4.10839916128766      0.55201363817625     -2.38002371417251
| 24>   H   -1.79311763517766     -1.29466335518302     -3.43516189242892
| 25>   H   1.93039616252341      0.75523251442089      0.47940332055347
| 26>   H   1.97851299265438     -0.60359592094812     -0.66355968776678
| 27>   H   2.39499678024301     -1.27387444688959      1.69691129350418
| 28>   H   0.79251637060131     -0.67960489909142      2.17095326918672
| 29>   H   1.14109143115258     -2.84013479588932      0.21153854652907
| 30>   H   -0.24664063115729     -2.36030645719540      0.96245736474229
| 31>   Cu  -3.00025521761018     -2.44988420026147      0.59294000534601
| 32>   Cu  -5.29255333398898     -2.53787684776617      1.43305228355980
| 33>   Cu  -3.61342327413388     -4.18379486559173      2.16449734402685
| 34>   Cu  -2.42318030050520     -2.14595805255506      2.92301911427386
| 35>   Cu  -4.55784937849428     -0.61968620123656      0.12569397684079
| 36>   Cu  -2.15515865024177     -0.26306947668903      1.36468277622633
| 37>   Cu  -4.26967157164219     -0.64060532593970      2.54896875502006
| 38>   Cu  -4.68115374634185     -2.67287125524958      3.81450566467241
| 39> *
| 40> 
| 41> 
| 42> $new_job
| 43> 
| 44> ! B3LYP D3 TightSCF def2-TZVP slowconv PModel cpcm(water) opt numfreq
| 45> %pal nprocs=16 end
| 46> %geom maxiter=150 end
| 47> %elprop Polar 1 end
| 48> %base "protonated"
| 49> *xyz 1 2
| 50>   C   -1.97220441321260     -1.31120570725444      0.74032310827642
| 51>   C   -0.67397615987391      1.16304160530379      1.04840877997570
| 52>   C   -2.55454423875750     -0.32090781106778      1.55203628854540
| 53>   C   -0.70158965696686     -1.09307066773160      0.15275754447226
| 54>   C   -0.03272447369643      0.13326040298857      0.31265038670954
| 55>   C   -1.90144878278867      0.92126693635707      1.70404987076505
| 56>   O   -3.73602061611575     -0.56912342918582      2.16713095116780
| 57>   O   -2.52433627881176      1.81538101445881      2.51572843919968
| 58>   C   1.36692312647140      0.33099272365631     -0.21882200376586
| 59>   C   1.48072528154250      1.03053224642724     -1.57062177613114
| 60>   N   0.88138299380964      0.21518234931327     -2.67361083490760
| 61>   H   -0.17219016403443      0.20463381553439     -2.59748096732028
| 62>   H   1.10182592642076      0.61801651653242     -3.59406112037779
| 63>   H   1.21924247391135     -0.75722021121362     -2.66435432237824
| 64>   H   -2.44021954653629     -2.29755817778567      0.70291854753858
| 65>   H   -0.13003122894934      2.08460002015802      1.28261864110343
| 66>   H   -0.20753178842755     -1.91590676553676     -0.36666147402638
| 67>   H   -4.01410821698268      0.23840907542751      2.64663932434709
| 68>   H   -2.02143484970320      2.65206530161477      2.54967206018690
| 69>   H   1.87054023625176     -0.64632451044744     -0.28043643075765
| 70>   H   1.94300848121579      0.94147880626622      0.49212335695785
| 71>   H   0.94951307535143      1.99333559956136     -1.57662318249208
| 72>   H   2.53325145430755      1.19837654526213     -1.82731095942783
| 73>   Cu  -3.31459288810556      3.11906781575107     -2.33220300511889
| 74>   Cu  -2.18672884272025      1.11265918987297     -3.00629494031618
| 75>   Cu  -1.78450562033125      1.93541257255832     -0.74947577524553
| 76>   Cu  -4.13894292400778      1.26571068530770     -0.99559061303269
| 77>   Cu  -3.84060866847112      1.96028525724995     -4.50990769187330
| 78>   Cu  -5.54905581266511      2.07508655278528     -2.75730162128762
| 79>   Cu  -4.28079271188338     -0.04774973445260     -3.03394274964025
| 80>   Cu  -2.55282756324043     -0.59548487571163     -1.30905238814621 
| 81> *
| 82> 
| 83> 
| 84> $new_job
| 85> 
| 86> ! B3LYP D3 TightSCF def2-TZVP slowconv PModel cpcm(water) opt numfreq
| 87> %pal nprocs=16 end
| 88> %geom maxiter=150 end
| 89> %elprop Polar 1 end
| 90> %base "deprotonated"
| 91> *xyz -1 2
| 92>   O   3.11174070127461     -0.74512211692160      0.19164228672741
| 93>   O   3.46096605384020      1.95088288771178     -0.76444809675975
| 94>   N   -3.74551041412432     -1.19919783609113     -0.18753068482735
| 95>   C   -1.69831254335940      0.01006704090060      0.72952743546964
| 96>   C   -0.32940715112606      0.53484910720576      0.37864257224324
| 97>   C   -2.40387850980546     -0.66652305633904     -0.46294327772074
| 98>   C   0.80137200065251     -0.29598363820847      0.44749609511843
| 99>   C   -0.14258741066237      1.84335802311049     -0.08661755591140
|100>   C   2.07155789131901      0.14513749386897      0.07234213112170
|101>   C   1.12360169667964      2.29680502693582     -0.46692406014038
|102>   C   2.27590483645565      1.47851203581250     -0.40788623465802
|103>   H   -2.33795810038276      0.83499823937472      1.08632797864620
|104>   H   -1.62855072568327     -0.72422108099774      1.55016032070355
|105>   H   -1.77273616948223     -1.49235751995061     -0.83006602336525
|106>   H   -2.48350656874187      0.05943565726744     -1.28874768348394
|107>   H   0.70346519756935     -1.32359491610839      0.81089872299763
|108>   H   -0.99919167700051      2.52054257916124     -0.15087040298955
|109>   H   1.25663657272168      3.32251471933703     -0.82184053374853
|110>   H   -4.33776812520380     -0.44038913126633      0.16369003552812
|111>   H   -3.68462868624204     -1.87010487181190      0.58459637323787
|112>   H   3.96800500042919     -0.30610929174625     -0.08015133970397
|113>   Cu  5.19730745206526      1.15921913012777     -1.13554030745047
|114>   Cu  6.51582087990282     -0.95356285320093     -0.87074930191740
|115>   Cu  5.87496620764357     -0.33287830801256     -3.07652606401113
|116>   Cu  7.46461387503382      1.15414774025198     -2.12693664183398
|117>   Cu  6.32381462673372      0.41154915401691      1.04202459576269
|118>   Cu  7.23153283560436      2.38530826880656     -0.13269778869411
|119>   Cu  8.51794147829976      0.23440203709149     -0.13355189199597
|120>   Cu  8.50446231758876     -1.01348481932616     -2.24635310934454
|121> *
|122> 
|123> $new_job
|124> 
|125> ! B3LYP D3 TightSCF def2-TZVP slowconv PModel cpcm(water) opt numfreq
|126> %pal nprocs=16 end
|127> %geom maxiter=150 end
|128> %elprop Polar 1 end
|129> %base "2x_deprotonated"
|130> *xyz -2 2
|131>   O   3.04252167807346     -0.60100765100403      1.34794418959035
|132>   O   3.40061837222438      2.27711853768435      1.11597858456970
|133>   N   -3.69485469552169     -1.03447248568005      0.14264579205821
|134>   C   -1.40771485957149     -0.25256366155450     -0.66952912074105
|135>   C   -0.11551014771213      0.40506159504458     -0.25107893640276
|136>   C   -2.41115138528403     -0.40558960067887      0.49009084248675
|137>   C   0.91915418470979     -0.34526922640920      0.33436992060231
|138>   C   0.07476823785298      1.78583268599242     -0.37669386990762
|139>   C   2.13351027570644      0.20830426336887      0.79559941140521
|140>   C   1.26484148408182      2.37542301660213      0.07234076034527
|141>   C   2.31623971540264      1.64447785944520      0.66628194419705
|142>   H   -1.88986430414712      0.34044275915463     -1.46557814658166
|143>   H   -1.21239658234746     -1.25561574329811     -1.08736029678475
|144>   H   -2.61885656411960      0.58989650772907      0.91585486834038
|145>   H   -1.94361870946845     -0.99970694005560      1.29232857074677
|146>   H   0.80285133102435     -1.42986478204164      0.44102321643562
|147>   H   -0.70399724498264      2.40544569521174     -0.83147906530591
|148>   H   1.41148066893320      3.45575695822920     -0.02761800003850
|149>   H   -3.51030887056985     -1.95811257631446     -0.26109549501020
|150>   H   -4.13114806861177     -0.49696285015681     -0.61297797594341
|151>   Cu  5.28040001900637      2.11977990468594      0.61588589763920
|152>   Cu  6.84442314482871      0.89803001715146      2.13746412618370
|153>   Cu  4.92590846906660     -0.31217655348456      1.32646675074395
|154>   Cu  6.55161134608818      0.23748959436844     -0.38577273707687
|155>   Cu  7.58990333935712      2.99008551576189      1.41158459915164
|156>   Cu  7.28013324243651      2.39273016658559     -0.92119630170154
|157>   Cu  8.72700153036345      0.91681979545182      0.53945280398708
|158>   Cu  7.50115836218004     -1.19592048078955      1.24409373201107
|159> *
|160> 
|161> $new_job
|162> 
|163> ! B3LYP D3 TightSCF def2-TZVP slowconv PModel cpcm(water) opt numfreq
|164> %pal nprocs=16 end
|165> %geom maxiter=150 end
|166> %elprop Polar 1 end
|167> %base "zwitterione"
|168> *xyz 0 2
|169>   O   3.57504252884633     -1.09260703725889      0.88562656323491
|170>   C   2.62658920254499     -0.33693333481921      0.24760324613052
|171>   C   1.33930000059173     -0.86231746098964      0.15428229806165
|172>   C   0.29781200007463     -0.16529068429121     -0.48292576081996
|173>   C   -1.10032317548334     -0.73450960510712     -0.51422995433639
|174>   C   -1.83497487397462     -0.53955667356452      0.81174933659681
|175>   N   -1.91833356455485      0.92440162137791      1.13901637364945
|176>   H   -2.24974877898832      1.08751317456119      2.09828000411261
|177>   H   -0.98423345505479      1.35656360183470      1.03541541141395
|178>   H   -2.55548373199698      1.41563412499466      0.49686956254106
|179>   C   0.58760825248126      1.09399889172577     -1.02518201296071
|180>   C   1.87542369167732      1.63200477633998     -0.93532582734841
|181>   C   2.94087565595028      0.95205408040268     -0.30171687448318
|182>   O   4.14179949766916      1.49415091288356     -0.22189329358269
|183>   H   4.45678689924197     -0.61966756383682      0.86873014165492
|184>   H   1.15285623068247     -1.84752743860226      0.59188109315713
|185>   H   -1.68461267164760     -0.26669002045962     -1.32248937042811
|186>   H   -1.08438708033445     -1.81728240559020     -0.71089197793702
|187>   H   -2.86203398383191     -0.92249730325262      0.78285001705866
|188>   H   -1.29280302083413     -1.01211462422154      1.63979228124072
|189>   H   -0.19832571325489      1.65629171532644     -1.53742869299979
|190>   H   2.09220822900250      2.61260454232676     -1.36659212153272
|191>   Cu  5.93846383649302      0.79388516901424      0.08403415212838
|192>   Cu  7.18087080735988     -1.21662271339167      0.88576874948072
|193>   Cu  7.29747568574532     -0.71723441562726     -1.44036419443848
|194>   Cu  8.40445871406609      0.90431841041682     -0.10680814481733
|195>   Cu  6.31176462600125      0.20616609673883      2.55522323335169
|196>   Cu  7.45868131065272      2.18676184158608      1.63311288538395
|197>   Cu  8.77533449063380      0.11481339061490      2.16434922087464
|198>   Cu  9.51014508324092     -1.21092417113198      0.23039880861300
|199> *
|200> 
|201>                          ****END OF INPUT****
================================================================================


                 $$$$$$$$$$$$$$$$$$$$$$$$$$$$$$$$$$$$$$$$$$$$$$ 
                 $ THERE ARE  5 JOBS TO BE PROCESSED THIS RUN $
                 $$$$$$$$$$$$$$$$$$$$$$$$$$$$$$$$$$$$$$$$$$$$$$ 




                 $$$$$$$$$$$$$$$$  JOB NUMBER  1 $$$$$$$$$$$$$$


                       *****************************
                       * Geometry Optimization Run *
                       *****************************

Geometry optimization settings:
Update method            Update   .... BFGS
Choice of coordinates    CoordSys .... Z-matrix Internals
Initial Hessian          InHess   .... Almoef's Model

Convergence Tolerances:
Energy Change            TolE     ....  5.0000e-06 Eh
Max. Gradient            TolMAXG  ....  3.0000e-04 Eh/bohr
RMS Gradient             TolRMSG  ....  1.0000e-04 Eh/bohr
Max. Displacement        TolMAXD  ....  4.0000e-03 bohr
RMS Displacement         TolRMSD  ....  2.0000e-03 bohr
Strict Convergence                ....  False
------------------------------------------------------------------------------
                        ORCA OPTIMIZATION COORDINATE SETUP
------------------------------------------------------------------------------

The optimization will be done in new redundant internal coordinates
Making redundant internal coordinates   ...  (new redundants) done
Evaluating the initial hessian          ...  (Almloef) done
Evaluating the coordinates              ...  done
Calculating the B-matrix                .... done
Calculating the G-matrix                .... done
Diagonalizing the G-matrix              .... done
Small eigenvalue found = 1.330e-02
The first mode is                       ....  725
The number of degrees of freedom        ....   84

    -----------------------------------------------------------------
                    Redundant Internal Coordinates


    -----------------------------------------------------------------
         Definition                    Initial Value    Approx d2E/dq
    -----------------------------------------------------------------
      1. B(C   2,C   0)                  1.3998         0.602620   
      2. B(C   3,C   0)                  1.3996         0.603242   
      3. B(C   4,C   1)                  1.4167         0.566331   
      4. B(C   4,C   3)                  1.4156         0.568736   
      5. B(C   5,C   1)                  1.4030         0.595675   
      6. B(C   5,C   2)                  1.4035         0.594470   
      7. B(O   6,C   5)                  1.3820         0.576361   
      8. B(O   7,C   2)                  1.3640         0.615573   
      9. B(C   8,C   3)                  1.5025         0.413334   
     10. B(C   9,C   8)                  1.5485         0.349077   
     11. B(N  10,C   9)                  1.4629         0.428180   
     12. B(H  11,C   0)                  1.0930         0.356206   
     13. B(H  12,C   1)                  1.0907         0.359145   
     14. B(H  13,C   4)                  1.0918         0.357771   
     15. B(H  14,O   6)                  0.9809         0.481509   
     16. B(H  15,O   7)                  0.9761         0.490053   
     17. B(H  16,C   8)                  1.1024         0.344022   
     18. B(H  17,C   8)                  1.1013         0.345402   
     19. B(H  18,C   9)                  1.1022         0.344346   
     20. B(H  19,C   9)                  1.1029         0.343411   
     21. B(H  20,N  10)                  1.0243         0.410580   
     22. B(H  21,N  10)                  1.0306         0.401118   
     23. B(Cu 23,Cu 22)                  2.4430         1.336664   
     24. B(Cu 24,Cu 23)                  2.4624         1.244523   
     25. B(Cu 24,Cu 22)                  2.4191         1.459046   
     26. B(Cu 25,Cu 24)                  2.4789         1.171549   
     27. B(Cu 25,Cu 23)                  3.2568         0.067234   
     28. B(Cu 25,Cu 22)                  2.4196         1.456344   
     29. B(Cu 26,Cu 22)                  2.4483         1.310932   
     30. B(Cu 26,O   6)                  2.4074         0.134853   
     31. B(Cu 26,C   5)                  2.7690         0.039887   
     32. B(Cu 26,Cu 23)                  2.4348         1.377265   
     33. B(Cu 27,Cu 26)                  2.7268         0.471282   
     34. B(Cu 27,Cu 25)                  2.4588         1.261376   
     35. B(Cu 27,Cu 22)                  2.4682         1.218467   
     36. B(Cu 27,C   4)                  2.2111         0.309636   
     37. B(Cu 27,C   3)                  2.8175         0.033372   
     38. B(Cu 27,C   1)                  2.2382         0.280332   
     39. B(Cu 28,Cu 27)                  2.4528         1.289310   
     40. B(Cu 28,Cu 26)                  2.4404         1.349208   
     41. B(Cu 28,Cu 25)                  2.4115         1.500322   
     42. B(Cu 28,Cu 24)                  3.6239         0.017456   
     43. B(Cu 28,Cu 23)                  2.4272         1.416563   
     44. B(Cu 28,Cu 22)                  2.9514         0.206453   
     45. B(Cu 29,Cu 28)                  2.4292         1.406090   
     46. B(Cu 29,Cu 25)                  2.4841         1.149203   
     47. B(Cu 29,Cu 24)                  2.4790         1.170982   
     48. B(Cu 29,Cu 23)                  2.4624         1.244692   
     49. A(C   3,C   0,H  11)          119.8880         0.350633   
     50. A(C   2,C   0,H  11)          118.7598         0.350572   
     51. A(C   2,C   0,C   3)          121.3335         0.429733   
     52. A(C   4,C   1,H  12)          121.2288         0.347400   
     53. A(C   5,C   1,H  12)          119.1513         0.350372   
     54. A(C   5,C   1,Cu 27)           99.1036         0.418989   
     55. A(C   4,C   1,C   5)          119.5271         0.424018   
     56. A(C   4,C   1,Cu 27)           70.3980         0.415237   
     57. A(H  12,C   1,Cu 27)          103.3301         0.343522   
     58. A(C   0,C   2,O   7)          124.3599         0.428480   
     59. A(C   0,C   2,C   5)          119.9199         0.428605   
     60. A(C   5,C   2,O   7)          115.6832         0.427436   
     61. A(C   4,C   3,C   8)          120.3436         0.397719   
     62. A(C   4,C   3,Cu 27)           50.6920         0.290719   
     63. A(C   0,C   3,C   8)          121.0506         0.401862   
     64. A(C   0,C   3,C   4)          118.5633         0.425299   
     65. A(C   0,C   3,Cu 27)           97.7518         0.293427   
     66. A(C   8,C   3,Cu 27)          117.2902         0.276661   
     67. A(H  13,C   4,Cu 27)          103.0379         0.349088   
     68. A(C   1,C   4,H  13)          119.3366         0.347176   
     69. A(C   3,C   4,H  13)          119.8122         0.347424   
     70. A(C   1,C   4,C   3)          120.5455         0.420527   
     71. A(C   3,C   4,Cu 27)           99.6137         0.422982   
     72. A(C   1,C   4,Cu 27)           72.4733         0.422662   
     73. A(C   1,C   5,O   6)          118.9066         0.422584   
     74. A(C   2,C   5,Cu 26)          108.5062         0.301143   
     75. A(O   6,C   5,Cu 26)           60.3888         0.297929   
     76. A(C   1,C   5,Cu 26)           96.1653         0.301240   
     77. A(C   1,C   5,C   2)          120.0639         0.427715   
     78. A(C   2,C   5,O   6)          120.8386         0.422431   
     79. A(C   5,O   6,Cu 26)           89.6717         0.362652   
     80. A(C   5,O   6,H  14)          108.2943         0.360744   
     81. A(H  14,O   6,Cu 26)          103.4177         0.315455   
     82. A(C   2,O   7,H  15)          110.1634         0.365923   
     83. A(C   9,C   8,H  17)          108.6291         0.318558   
     84. A(C   9,C   8,H  16)          107.8868         0.318350   
     85. A(C   3,C   8,H  16)          109.7241         0.327291   
     86. A(C   3,C   8,H  17)          109.7134         0.327507   
     87. A(C   3,C   8,C   9)          113.2887         0.365428   
     88. A(H  16,C   8,H  17)          107.4151         0.286888   
     89. A(C   8,C   9,H  19)          108.8088         0.318258   
     90. A(C   8,C   9,N  10)          116.5218         0.365352   
     91. A(N  10,C   9,H  19)          107.4855         0.327130   
     92. A(N  10,C   9,H  18)          108.8898         0.327276   
     93. A(C   8,C   9,H  18)          107.6758         0.318399   
     94. A(H  18,C   9,H  19)          107.0930         0.286671   
     95. A(H  20,N  10,H  21)          106.7516         0.297125   
     96. A(C   9,N  10,H  21)          109.6673         0.332776   
     97. A(C   9,N  10,H  20)          110.2017         0.334066   
     98. A(Cu 24,Cu 22,Cu 26)          119.9027         0.908831   
     99. A(Cu 25,Cu 22,Cu 26)          103.9820         0.908487   
    100. A(Cu 23,Cu 22,Cu 26)           59.7082         0.892735   
    101. A(Cu 26,Cu 22,Cu 28)           52.7418         0.615633   
    102. A(Cu 25,Cu 22,Cu 28)           52.2201         0.628322   
    103. A(Cu 24,Cu 22,Cu 28)           84.2507         0.628548   
    104. A(Cu 23,Cu 22,Cu 28)           52.4538         0.617955   
    105. A(Cu 23,Cu 22,Cu 24)           60.8531         0.912446   
    106. A(Cu 26,Cu 22,Cu 27)           67.3674         0.876068   
    107. A(Cu 23,Cu 22,Cu 25)           84.0967         0.912101   
    108. A(Cu 24,Cu 22,Cu 27)          121.2451         0.895370   
    109. A(Cu 27,Cu 22,Cu 28)           52.9084         0.606986   
    110. A(Cu 25,Cu 22,Cu 27)           60.3927         0.895032   
    111. A(Cu 24,Cu 22,Cu 25)           61.6335         0.928584   
    112. A(Cu 23,Cu 22,Cu 27)          104.2211         0.879539   
    113. A(Cu 24,Cu 23,Cu 26)          118.7060         0.888731   
    114. A(Cu 22,Cu 23,Cu 26)           60.2539         0.901765   
    115. A(Cu 26,Cu 23,Cu 28)           60.2566         0.912516   
    116. A(Cu 25,Cu 23,Cu 26)           83.3959         0.502125   
    117. A(Cu 25,Cu 23,Cu 28)           47.4920         0.504764   
    118. A(Cu 24,Cu 23,Cu 28)           95.6553         0.893840   
    119. A(Cu 22,Cu 23,Cu 28)           74.6043         0.906957   
    120. A(Cu 25,Cu 23,Cu 29)           49.1097         0.492768   
    121. A(Cu 28,Cu 23,Cu 29)           59.5735         0.893865   
    122. A(Cu 24,Cu 23,Cu 25)           48.9865         0.492756   
    123. A(Cu 22,Cu 23,Cu 25)           47.6467         0.499336   
    124. A(Cu 22,Cu 23,Cu 24)           59.0950         0.883333   
    125. A(Cu 26,Cu 23,Cu 29)          119.1802         0.888756   
    126. A(Cu 24,Cu 23,Cu 29)           60.4465         0.870620   
    127. A(Cu 22,Cu 23,Cu 29)           95.8301         0.883358   
    128. A(Cu 25,Cu 24,Cu 28)           41.4715         0.382511   
    129. A(Cu 23,Cu 24,Cu 28)           41.7982         0.386553   
    130. A(Cu 22,Cu 24,Cu 28)           54.1290         0.397458   
    131. A(Cu 23,Cu 24,Cu 25)           82.4623         0.859979   
    132. A(Cu 22,Cu 24,Cu 25)           59.1933         0.888235   
    133. A(Cu 22,Cu 24,Cu 23)           60.0519         0.899241   
    134. A(Cu 25,Cu 24,Cu 29)           60.1382         0.849423   
    135. A(Cu 23,Cu 24,Cu 29)           59.7760         0.859894   
    136. A(Cu 22,Cu 24,Cu 29)           96.0107         0.888148   
    137. A(Cu 28,Cu 24,Cu 29)           41.8817         0.382479   
    138. A(Cu 27,Cu 25,Cu 28)           60.4708         0.906859   
    139. A(Cu 24,Cu 25,Cu 28)           95.6272         0.893298   
    140. A(Cu 23,Cu 25,Cu 28)           47.8989         0.510205   
    141. A(Cu 22,Cu 25,Cu 28)           75.3109         0.933902   
    142. A(Cu 23,Cu 25,Cu 24)           48.5512         0.487272   
    143. A(Cu 22,Cu 25,Cu 24)           59.1733         0.887900   
    144. A(Cu 22,Cu 25,Cu 23)           48.2566         0.507378   
    145. A(Cu 24,Cu 25,Cu 27)          119.2055         0.862329   
    146. A(Cu 23,Cu 25,Cu 27)           84.1594         0.493987   
    147. A(Cu 22,Cu 25,Cu 27)           60.7814         0.901371   
    148. A(Cu 27,Cu 25,Cu 29)          119.2727         0.858966   
    149. A(Cu 24,Cu 25,Cu 29)           59.9335         0.846198   
    150. A(Cu 23,Cu 25,Cu 29)           48.5343         0.485539   
    151. A(Cu 22,Cu 25,Cu 29)           95.8638         0.884425   
    152. A(Cu 28,Cu 25,Cu 29)           59.4751         0.889799   
    153. A(O   6,Cu 26,Cu 23)          168.9838         0.520980   
    154. A(Cu 23,Cu 26,Cu 28)           59.7162         0.903485   
    155. A(C   5,Cu 26,Cu 23)          151.6768         0.418810   
    156. A(Cu 22,Cu 26,Cu 28)           74.2739         0.894436   
    157. A(O   6,Cu 26,Cu 28)          131.1788         0.518973   
    158. A(C   5,Cu 26,Cu 28)          113.4727         0.417277   
    159. A(O   6,Cu 26,Cu 22)          118.1317         0.516181   
    160. A(C   5,Cu 26,Cu 22)           91.7257         0.415146   
    161. A(C   5,Cu 26,O   6)           29.9395         0.263109   
    162. A(Cu 23,Cu 26,Cu 27)           97.1775         0.730938   
    163. A(Cu 22,Cu 26,Cu 27)           56.6645         0.723806   
    164. A(O   6,Cu 26,Cu 27)           89.6781         0.427883   
    165. A(C   5,Cu 26,Cu 27)           61.8211         0.347732   
    166. A(Cu 27,Cu 26,Cu 28)           56.3502         0.727954   
    167. A(Cu 22,Cu 26,Cu 23)           60.0379         0.898197   
    168. A(Cu 25,Cu 27,Cu 26)           95.2659         0.718293   
    169. A(Cu 22,Cu 27,Cu 26)           55.9682         0.713383   
    170. A(C   4,Cu 27,Cu 26)          115.4890         0.500429   
    171. A(C   3,Cu 27,Cu 26)          115.3915         0.337496   
    172. A(C   1,Cu 27,Cu 26)           80.6899         0.491274   
    173. A(Cu 22,Cu 27,Cu 25)           58.8259         0.869233   
    174. A(C   4,Cu 27,Cu 25)          147.2597         0.603125   
    175. A(C   3,Cu 27,Cu 25)          127.0105         0.399522   
    176. A(C   4,Cu 27,Cu 22)          129.6135         0.599113   
    177. A(C   3,Cu 27,Cu 22)          103.1638         0.397100   
    178. A(C   1,Cu 27,Cu 22)          119.4088         0.587762   
    179. A(C   3,Cu 27,C   4)           29.6943         0.292018   
    180. A(C   1,Cu 27,C   4)           37.1288         0.417653   
    181. A(C   1,Cu 27,C   3)           56.8422         0.287501   
    182. A(Cu 26,Cu 27,Cu 28)           55.9188         0.721420   
    183. A(Cu 25,Cu 27,Cu 28)           58.8115         0.879277   
    184. A(Cu 22,Cu 27,Cu 28)           73.7053         0.873111   
    185. A(C   4,Cu 27,Cu 28)          148.7747         0.605680   
    186. A(C   3,Cu 27,Cu 28)          171.1681         0.401066   
    187. A(C   1,Cu 27,Cu 28)          117.0864         0.594183   
    188. A(Cu 23,Cu 28,Cu 26)           60.0272         0.908688   
    189. A(Cu 22,Cu 28,Cu 26)           52.9843         0.619074   
    190. A(Cu 24,Cu 28,Cu 25)           42.9013         0.399412   
    191. A(Cu 23,Cu 28,Cu 25)           84.6091         0.928623   
    192. A(Cu 22,Cu 28,Cu 25)           52.4690         0.631965   
    193. A(Cu 23,Cu 28,Cu 24)           42.5465         0.395402   
    194. A(Cu 22,Cu 28,Cu 24)           41.6203         0.287144   
    195. A(Cu 22,Cu 28,Cu 23)           52.9419         0.624951   
    196. A(Cu 27,Cu 28,Cu 29)          121.7583         0.898945   
    197. A(Cu 26,Cu 28,Cu 29)          120.2964         0.907313   
    198. A(Cu 25,Cu 28,Cu 29)           61.7490         0.927213   
    199. A(Cu 24,Cu 28,Cu 29)           42.9440         0.394888   
    200. A(Cu 23,Cu 28,Cu 29)           60.9340         0.916385   
    201. A(Cu 22,Cu 28,Cu 29)           84.5643         0.624052   
    202. A(Cu 26,Cu 28,Cu 27)           67.7310         0.891410   
    203. A(Cu 25,Cu 28,Cu 27)           60.7177         0.910924   
    204. A(Cu 24,Cu 28,Cu 27)           86.7412         0.388944   
    205. A(Cu 23,Cu 28,Cu 27)          105.1672         0.900306   
    206. A(Cu 22,Cu 28,Cu 27)           53.3863         0.613654   
    207. A(Cu 25,Cu 28,Cu 26)          104.4647         0.919416   
    208. A(Cu 24,Cu 28,Cu 26)           85.6653         0.392042   
    209. A(Cu 25,Cu 29,Cu 28)           58.7760         0.878128   
    210. A(Cu 24,Cu 29,Cu 28)           95.1743         0.881488   
    211. A(Cu 23,Cu 29,Cu 28)           59.4925         0.892514   
    212. A(Cu 24,Cu 29,Cu 25)           59.9283         0.846115   
    213. A(Cu 23,Cu 29,Cu 25)           82.3561         0.856649   
    214. A(Cu 23,Cu 29,Cu 24)           59.7775         0.859918   
    215. D(O   7,C   2,C   0,C   3)   -177.2830         0.025047   
    216. D(O   7,C   2,C   0,H  11)      1.1433         0.025047   
    217. D(C   5,C   2,C   0,C   3)      0.4056         0.025047   
    218. D(C   5,C   2,C   0,H  11)    178.8318         0.025047   
    219. D(Cu 27,C   3,C   0,H  11)   -130.6271         0.027269   
    220. D(C   4,C   3,C   0,H  11)   -179.7967         0.027269   
    221. D(C   8,C   3,C   0,C   2)    176.2495         0.027269   
    222. D(C   4,C   3,C   0,C   2)     -1.3880         0.027269   
    223. D(Cu 27,C   3,C   0,C   2)     47.7816         0.027269   
    224. D(C   8,C   3,C   0,H  11)     -2.1592         0.027269   
    225. D(C   3,C   4,C   1,Cu 27)     90.9735         0.025640   
    226. D(H  13,C   4,C   1,Cu 27)    -95.3875         0.025640   
    227. D(H  13,C   4,C   1,C   5)    175.1100         0.025640   
    228. D(H  13,C   4,C   3,C   0)   -173.1661         0.025870   
    229. D(C   3,C   4,C   1,H  12)   -174.9955         0.025640   
    230. D(Cu 27,C   4,C   1,C   5)    -89.5024         0.025640   
    231. D(H  13,C   4,C   1,H  12)     -1.3565         0.025640   
    232. D(C   3,C   4,C   1,C   5)      1.4711         0.025640   
    233. D(C   1,C   4,C   3,C   0)      0.4427         0.025870   
    234. D(Cu 27,C   4,C   1,H  12)     94.0310         0.025640   
    235. D(H  13,C   4,C   3,C   8)      9.1792         0.025870   
    236. D(C   1,C   4,C   3,C   8)   -177.2120         0.025870   
    237. D(Cu 27,C   4,C   3,C   0)     75.6868         0.025870   
    238. D(H  13,C   4,C   3,Cu 27)    111.1471         0.025870   
    239. D(C   1,C   4,C   3,Cu 27)    -75.2441         0.025870   
    240. D(Cu 27,C   4,C   3,C   8)   -101.9679         0.025870   
    241. D(C   2,C   5,C   1,C   4)     -2.4682         0.028530   
    242. D(O   6,C   5,C   1,C   4)    172.5534         0.028530   
    243. D(C   2,C   5,C   1,H  12)    174.0723         0.028530   
    244. D(C   1,C   5,C   2,C   0)      1.5541         0.026436   
    245. D(Cu 26,C   5,C   1,H  12)    -70.3707         0.028530   
    246. D(Cu 26,C   5,C   2,C   0)   -107.3876         0.026436   
    247. D(C   2,C   5,C   1,Cu 27)    -75.0274         0.028530   
    248. D(O   6,C   5,C   2,O   7)      4.5129         0.026436   
    249. D(Cu 26,C   5,C   2,O   7)     70.4952         0.026436   
    250. D(Cu 26,C   5,C   1,Cu 27)     40.5296         0.028530   
    251. D(Cu 26,C   5,C   1,C   4)    113.0888         0.028530   
    252. D(O   6,C   5,C   2,C   0)   -173.3699         0.026436   
    253. D(O   6,C   5,C   1,Cu 27)     99.9942         0.028530   
    254. D(C   1,C   5,C   2,O   7)    179.4369         0.026436   
    255. D(O   6,C   5,C   1,H  12)    -10.9061         0.028530   
    256. D(Cu 26,O   6,C   5,C   1)    -80.0545         0.028930   
    257. D(H  14,O   6,C   5,Cu 26)   -104.0348         0.028930   
    258. D(H  14,O   6,C   5,C   2)     -9.1075         0.028930   
    259. D(H  14,O   6,C   5,C   1)    175.9107         0.028930   
    260. D(Cu 26,O   6,C   5,C   2)     94.9273         0.028930   
    261. D(H  15,O   7,C   2,C   0)      0.2454         0.027773   
    262. D(H  15,O   7,C   2,C   5)   -177.5316         0.027773   
    263. D(H  17,C   8,C   3,C   4)   -162.0615         0.013528   
    264. D(C   9,C   8,C   3,C   0)   -101.2352         0.013528   
    265. D(H  16,C   8,C   3,C   4)    -44.2731         0.013528   
    266. D(H  16,C   8,C   3,Cu 27)   -102.6740         0.013528   
    267. D(H  17,C   8,C   3,C   0)     20.3429         0.013528   
    268. D(C   9,C   8,C   3,Cu 27)     17.9595         0.013528   
    269. D(C   9,C   8,C   3,C   4)     76.3604         0.013528   
    270. D(H  16,C   8,C   3,C   0)    138.1313         0.013528   
    271. D(H  17,C   8,C   3,Cu 27)    139.5376         0.013528   
    272. D(H  18,C   9,C   8,H  17)     63.0812         0.009822   
    273. D(N  10,C   9,C   8,H  16)   -175.6672         0.009822   
    274. D(N  10,C   9,C   8,C   3)     62.6641         0.009822   
    275. D(N  10,C   9,C   8,H  17)    -59.5201         0.009822   
    276. D(H  18,C   9,C   8,C   3)   -174.7346         0.009822   
    277. D(H  19,C   9,C   8,H  16)     62.6831         0.009822   
    278. D(H  19,C   9,C   8,C   3)    -58.9856         0.009822   
    279. D(H  19,C   9,C   8,H  17)    178.8302         0.009822   
    280. D(H  18,C   9,C   8,H  16)    -53.0660         0.009822   
    281. D(H  20,N  10,C   9,C   8)     46.5092         0.015631   
    282. D(H  21,N  10,C   9,C   8)    -70.7267         0.015631   
    283. D(H  20,N  10,C   9,H  19)    168.8531         0.015631   
    284. D(H  21,N  10,C   9,H  19)     51.6172         0.015631   
    285. D(H  20,N  10,C   9,H  18)    -75.4572         0.015631   
    286. D(H  21,N  10,C   9,H  18)    167.3069         0.015631   
    287. D(Cu 29,Cu 23,Cu 22,Cu 27)    -67.8367         0.002609   
    288. D(Cu 29,Cu 23,Cu 22,Cu 28)    -56.2114         0.002609   
    289. D(Cu 24,Cu 23,Cu 22,Cu 25)    -60.7098         0.002609   
    290. D(Cu 26,Cu 23,Cu 22,Cu 27)     52.5692         0.002609   
    291. D(Cu 28,Cu 23,Cu 22,Cu 26)    -64.1944         0.002609   
    292. D(Cu 28,Cu 23,Cu 22,Cu 27)    -11.6252         0.002609   
    293. D(Cu 29,Cu 23,Cu 22,Cu 24)     50.2853         0.002609   
    294. D(Cu 26,Cu 23,Cu 22,Cu 25)    109.9814         0.002609   
    295. D(Cu 25,Cu 23,Cu 22,Cu 28)    -45.7869         0.002609   
    296. D(Cu 24,Cu 23,Cu 22,Cu 26)   -170.6912         0.002609   
    297. D(Cu 28,Cu 23,Cu 22,Cu 24)    106.4967         0.002609   
    298. D(Cu 26,Cu 23,Cu 22,Cu 28)     64.1944         0.002609   
    299. D(Cu 26,Cu 23,Cu 22,Cu 24)    170.6912         0.002609   
    300. D(Cu 28,Cu 23,Cu 22,Cu 25)     45.7869         0.002609   
    301. D(Cu 24,Cu 23,Cu 22,Cu 28)   -106.4967         0.002609   
    302. D(Cu 25,Cu 23,Cu 22,Cu 27)    -57.4121         0.002609   
    303. D(Cu 25,Cu 23,Cu 22,Cu 24)     60.7098         0.002609   
    304. D(Cu 24,Cu 23,Cu 22,Cu 27)   -118.1220         0.002609   
    305. D(Cu 29,Cu 23,Cu 22,Cu 26)   -120.4059         0.002609   
    306. D(Cu 29,Cu 23,Cu 22,Cu 25)    -10.4245         0.002609   
    307. D(Cu 25,Cu 23,Cu 22,Cu 26)   -109.9814         0.002609   
    308. D(Cu 29,Cu 24,Cu 23,Cu 26)    109.1785         0.002421   
    309. D(Cu 25,Cu 24,Cu 22,Cu 26)    -90.3576         0.002748   
    310. D(Cu 28,Cu 24,Cu 23,Cu 29)    -50.1207         0.002421   
    311. D(Cu 28,Cu 24,Cu 23,Cu 25)      9.6025         0.002421   
    312. D(Cu 28,Cu 24,Cu 22,Cu 27)     39.6410         0.002748   
    313. D(Cu 29,Cu 24,Cu 23,Cu 25)     59.7233         0.002421   
    314. D(Cu 29,Cu 24,Cu 22,Cu 23)    -49.8473         0.002748   
    315. D(Cu 25,Cu 24,Cu 23,Cu 29)    -59.7233         0.002421   
    316. D(Cu 29,Cu 24,Cu 22,Cu 27)     39.6179         0.002748   
    317. D(Cu 22,Cu 24,Cu 23,Cu 25)    -58.6692         0.002421   
    318. D(Cu 22,Cu 24,Cu 23,Cu 26)     -9.2139         0.002421   
    319. D(Cu 25,Cu 24,Cu 23,Cu 26)     49.4552         0.002421   
    320. D(Cu 29,Cu 24,Cu 22,Cu 28)     -0.0231         0.002748   
    321. D(Cu 22,Cu 24,Cu 23,Cu 29)   -118.3925         0.002421   
    322. D(Cu 25,Cu 24,Cu 23,Cu 22)     58.6692         0.002421   
    323. D(Cu 29,Cu 24,Cu 22,Cu 26)    -40.5754         0.002748   
    324. D(Cu 25,Cu 24,Cu 23,Cu 28)     -9.6025         0.002421   
    325. D(Cu 29,Cu 24,Cu 22,Cu 25)     49.7822         0.002748   
    326. D(Cu 28,Cu 24,Cu 22,Cu 26)    -40.5522         0.002748   
    327. D(Cu 28,Cu 24,Cu 23,Cu 26)     59.0578         0.002421   
    328. D(Cu 28,Cu 24,Cu 23,Cu 22)     68.2717         0.002421   
    329. D(Cu 28,Cu 24,Cu 22,Cu 25)     49.8054         0.002748   
    330. D(Cu 28,Cu 24,Cu 22,Cu 23)    -49.8242         0.002748   
    331. D(Cu 25,Cu 24,Cu 22,Cu 28)    -49.8054         0.002748   
    332. D(Cu 29,Cu 24,Cu 23,Cu 28)     50.1207         0.002421   
    333. D(Cu 29,Cu 24,Cu 23,Cu 22)    118.3925         0.002421   
    334. D(Cu 23,Cu 24,Cu 22,Cu 27)     89.4652         0.002748   
    335. D(Cu 22,Cu 24,Cu 23,Cu 28)    -68.2717         0.002421   
    336. D(Cu 23,Cu 24,Cu 22,Cu 26)      9.2719         0.002748   
    337. D(Cu 23,Cu 24,Cu 22,Cu 25)     99.6295         0.002748   
    338. D(Cu 23,Cu 24,Cu 22,Cu 28)     49.8242         0.002748   
    339. D(Cu 25,Cu 24,Cu 22,Cu 23)    -99.6295         0.002748   
    340. D(Cu 25,Cu 24,Cu 22,Cu 27)    -10.1643         0.002748   
    341. D(Cu 29,Cu 25,Cu 24,Cu 23)     59.3670         0.002320   
    342. D(Cu 28,Cu 25,Cu 24,Cu 29)    -49.7021         0.002320   
    343. D(Cu 22,Cu 25,C   1,C   4)   -114.4093         0.001500   
    344. D(Cu 23,Cu 25,C   1,C   5)    -41.7242         0.001500   
    345. D(Cu 28,Cu 25,Cu 24,Cu 22)     69.1747         0.002320   
    346. D(Cu 27,Cu 25,Cu 24,Cu 28)    -59.1827         0.002320   
    347. D(Cu 24,Cu 25,C   1,H  12)    114.4498         0.001500   
    348. D(Cu 23,Cu 25,Cu 24,Cu 29)    -59.3670         0.002320   
    349. D(Cu 23,Cu 25,Cu 24,Cu 28)     -9.6649         0.002320   
    350. D(Cu 22,Cu 25,Cu 24,Cu 23)    -59.5098         0.002320   
    351. D(Cu 23,Cu 25,Cu 22,Cu 26)     56.7480         0.002806   
    352. D(Cu 29,Cu 25,Cu 23,Cu 22)   -166.2249         0.001504   
    353. D(Cu 29,Cu 25,C   1,C   5)    -76.4603         0.001500   
    354. D(Cu 28,Cu 25,Cu 23,Cu 29)    -83.3936         0.001504   
    355. D(Cu 28,Cu 25,Cu 23,Cu 24)   -166.9864         0.001504   
    356. D(Cu 28,Cu 25,Cu 23,Cu 22)    110.3815         0.001504   
    357. D(Cu 28,Cu 25,Cu 22,Cu 23)    -45.9730         0.002806   
    358. D(Cu 27,Cu 25,Cu 23,Cu 24)    138.1349         0.001504   
    359. D(Cu 29,Cu 25,Cu 22,Cu 24)    -49.6250         0.002806   
    360. D(Cu 24,Cu 25,Cu 23,Cu 26)   -137.8591         0.001504   
    361. D(Cu 22,Cu 25,Cu 23,Cu 26)    -55.2271         0.001504   
    362. D(Cu 22,Cu 25,Cu 23,Cu 24)     82.6321         0.001504   
    363. D(Cu 29,Cu 25,Cu 22,Cu 28)     56.3059         0.002806   
    364. D(Cu 22,Cu 25,Cu 23,Cu 28)   -110.3815         0.001504   
    365. D(Cu 29,Cu 25,Cu 22,Cu 27)    120.3816         0.002806   
    366. D(Cu 29,Cu 25,Cu 22,Cu 26)     67.0810         0.002806   
    367. D(Cu 24,Cu 25,Cu 23,Cu 28)    166.9864         0.001504   
    368. D(Cu 29,Cu 25,Cu 22,Cu 23)     10.3330         0.002806   
    369. D(Cu 24,Cu 25,Cu 23,Cu 29)     83.5928         0.001504   
    370. D(Cu 28,Cu 25,Cu 22,Cu 27)     64.0757         0.002806   
    371. D(Cu 27,Cu 25,Cu 23,Cu 22)     55.5028         0.001504   
    372. D(Cu 28,Cu 25,Cu 22,Cu 26)     10.7751         0.002806   
    373. D(Cu 27,Cu 25,Cu 23,Cu 28)    -54.8787         0.001504   
    374. D(Cu 27,Cu 25,Cu 23,Cu 29)   -138.2723         0.001504   
    375. D(Cu 27,Cu 25,Cu 23,Cu 26)      0.2757         0.001504   
    376. D(Cu 27,Cu 25,Cu 22,Cu 28)    -64.0757         0.002806   
    377. D(Cu 27,Cu 25,Cu 22,Cu 26)    -53.3006         0.002806   
    378. D(Cu 24,Cu 25,Cu 23,Cu 22)    -82.6321         0.001504   
    379. D(Cu 27,Cu 25,Cu 22,Cu 24)   -170.0067         0.002806   
    380. D(Cu 27,Cu 25,Cu 22,Cu 23)   -110.0487         0.002806   
    381. D(Cu 28,Cu 25,Cu 23,Cu 26)     55.1545         0.001504   
    382. D(Cu 29,Cu 25,Cu 23,Cu 26)    138.5481         0.001504   
    383. D(Cu 24,Cu 25,Cu 22,Cu 28)    105.9310         0.002806   
    384. D(Cu 29,Cu 25,Cu 23,Cu 24)    -83.5928         0.001504   
    385. D(Cu 24,Cu 25,Cu 22,Cu 27)    170.0067         0.002806   
    386. D(Cu 29,Cu 25,Cu 23,Cu 28)     83.3936         0.001504   
    387. D(Cu 28,Cu 25,Cu 22,Cu 24)   -105.9310         0.002806   
    388. D(Cu 23,Cu 25,Cu 22,Cu 28)     45.9730         0.002806   
    389. D(Cu 29,Cu 25,C   1,H  12)     45.8062         0.001500   
    390. D(Cu 23,Cu 25,Cu 22,Cu 27)    110.0487         0.002806   
    391. D(Cu 29,Cu 25,C   1,C   4)    165.0516         0.001500   
    392. D(Cu 22,Cu 25,Cu 24,Cu 29)   -118.8768         0.002320   
    393. D(Cu 23,Cu 25,Cu 22,Cu 24)    -59.9580         0.002806   
    394. D(Cu 23,Cu 25,Cu 24,Cu 22)     59.5098         0.002320   
    395. D(Cu 27,Cu 25,Cu 24,Cu 22)      9.9920         0.002320   
    396. D(Cu 24,Cu 25,Cu 22,Cu 23)     59.9580         0.002806   
    397. D(Cu 22,Cu 25,Cu 24,Cu 28)    -69.1747         0.002320   
    398. D(Cu 27,Cu 25,Cu 24,Cu 29)   -108.8848         0.002320   
    399. D(Cu 24,Cu 25,Cu 22,Cu 26)    116.7060         0.002806   
    400. D(Cu 28,Cu 25,C   1,H  12)     35.7637         0.001500   
    401. D(Cu 28,Cu 25,C   1,C   5)    -86.5028         0.001500   
    402. D(Cu 28,Cu 25,Cu 24,Cu 23)      9.6649         0.002320   
    403. D(Cu 27,Cu 25,Cu 24,Cu 23)    -49.5177         0.002320   
    404. D(Cu 28,Cu 25,C   1,C   4)    155.0091         0.001500   
    405. D(Cu 24,Cu 25,C   1,C   5)     -7.8167         0.001500   
    406. D(Cu 23,Cu 25,C   1,H  12)     80.5423         0.001500   
    407. D(Cu 24,Cu 25,C   1,C   4)   -126.3047         0.001500   
    408. D(Cu 23,Cu 25,C   1,C   4)   -160.2122         0.001500   
    409. D(Cu 22,Cu 25,C   1,H  12)    126.3452         0.001500   
    410. D(Cu 29,Cu 25,Cu 24,Cu 22)    118.8768         0.002320   
    411. D(Cu 22,Cu 25,Cu 23,Cu 29)    166.2249         0.001504   
    412. D(Cu 29,Cu 25,Cu 24,Cu 28)     49.7021         0.002320   
    413. D(Cu 22,Cu 25,C   1,C   5)      4.0787         0.001500   
    414. D(O   6,Cu 26,Cu 23,Cu 25)    127.8654         0.002674   
    415. D(O   6,Cu 26,Cu 23,Cu 24)     92.6105         0.002674   
    416. D(C   5,Cu 26,Cu 23,Cu 28)     83.6095         0.002674   
    417. D(Cu 23,Cu 26,C   5,C   2)     41.9312         0.001510   
    418. D(Cu 28,Cu 26,Cu 22,Cu 27)    -59.7469         0.002568   
    419. D(Cu 28,Cu 26,Cu 22,Cu 23)     63.7436         0.002568   
    420. D(Cu 27,Cu 26,Cu 22,Cu 28)     59.7469         0.002568   
    421. D(Cu 27,Cu 26,Cu 22,Cu 25)     49.0478         0.002568   
    422. D(Cu 23,Cu 26,Cu 22,Cu 28)    -63.7436         0.002568   
    423. D(C   5,Cu 26,O   6,H  14)    108.7443         0.001601   
    424. D(O   6,Cu 26,Cu 22,Cu 28)    128.6892         0.002568   
    425. D(Cu 27,Cu 26,O   6,C   5)     20.5373         0.001601   
    426. D(O   6,Cu 26,Cu 22,Cu 23)   -167.5672         0.002568   
    427. D(C   5,Cu 26,Cu 22,Cu 23)    177.6664         0.002568   
    428. D(C   5,Cu 26,Cu 22,Cu 25)    103.2237         0.002568   
    429. D(C   5,Cu 26,Cu 22,Cu 24)    168.2871         0.002568   
    430. D(Cu 28,Cu 26,O   6,H  14)    171.4531         0.001601   
    431. D(C   5,Cu 26,Cu 22,Cu 28)    113.9228         0.002568   
    432. D(O   6,Cu 26,Cu 22,Cu 24)   -176.9465         0.002568   
    433. D(Cu 28,Cu 26,O   6,C   5)     62.7088         0.001601   
    434. D(Cu 27,Cu 26,O   6,H  14)    129.2816         0.001601   
    435. D(O   6,Cu 26,Cu 22,Cu 27)     68.9423         0.002568   
    436. D(C   5,Cu 26,Cu 22,Cu 27)     54.1759         0.002568   
    437. D(Cu 23,Cu 26,O   6,H  14)      0.5993         0.001601   
    438. D(Cu 23,Cu 26,O   6,C   5)   -108.1450         0.001601   
    439. D(Cu 22,Cu 26,O   6,H  14)     78.0498         0.001601   
    440. D(Cu 23,Cu 26,Cu 22,Cu 24)     -9.3793         0.002568   
    441. D(O   6,Cu 26,Cu 22,Cu 25)    117.9901         0.002568   
    442. D(Cu 22,Cu 26,O   6,C   5)    -30.6945         0.001601   
    443. D(Cu 27,Cu 26,Cu 22,Cu 23)    123.4905         0.002568   
    444. D(Cu 23,Cu 26,Cu 22,Cu 27)   -123.4905         0.002568   
    445. D(Cu 28,Cu 26,C   5,O   6)   -133.1788         0.001510   
    446. D(Cu 28,Cu 26,C   5,C   2)    111.2553         0.001510   
    447. D(Cu 27,Cu 26,Cu 22,Cu 24)    114.1113         0.002568   
    448. D(Cu 28,Cu 26,C   5,C   1)    -13.3217         0.001510   
    449. D(Cu 27,Cu 26,C   5,O   6)   -156.5480         0.001510   
    450. D(Cu 28,Cu 26,Cu 22,Cu 24)     54.3643         0.002568   
    451. D(Cu 27,Cu 26,C   5,C   2)     87.8861         0.001510   
    452. D(Cu 27,Cu 26,C   5,C   1)    -36.6909         0.001510   
    453. D(Cu 23,Cu 26,Cu 22,Cu 25)    -74.4427         0.002568   
    454. D(C   5,Cu 26,Cu 23,Cu 24)      4.1836         0.002674   
    455. D(C   5,Cu 26,Cu 23,Cu 25)     39.4385         0.002674   
    456. D(C   5,Cu 26,Cu 23,Cu 22)     -4.9211         0.002674   
    457. D(C   5,Cu 26,Cu 23,Cu 29)     74.4111         0.002674   
    458. D(Cu 23,Cu 26,C   5,C   1)    -82.6458         0.001510   
    459. D(Cu 23,Cu 26,C   5,O   6)    157.4971         0.001510   
    460. D(Cu 22,Cu 26,C   5,O   6)    153.2331         0.001510   
    461. D(Cu 22,Cu 26,C   5,C   2)     37.6672         0.001510   
    462. D(Cu 22,Cu 26,C   5,C   1)    -86.9099         0.001510   
    463. D(O   6,Cu 26,Cu 23,Cu 22)     83.5059         0.002674   
    464. D(O   6,Cu 26,C   5,C   2)   -115.5659         0.001510   
    465. D(O   6,Cu 26,Cu 23,Cu 28)    172.0364         0.002674   
    466. D(O   6,Cu 26,C   5,C   1)    119.8571         0.001510   
    467. D(Cu 22,Cu 26,Cu 23,Cu 24)      9.1046         0.002674   
    468. D(O   6,Cu 26,Cu 23,Cu 29)    162.8380         0.002674   
    469. D(Cu 28,Cu 26,Cu 22,Cu 25)    -10.6991         0.002568   
    470. D(Cu 27,Cu 26,Cu 23,Cu 29)     34.7233         0.002674   
    471. D(Cu 28,Cu 26,Cu 23,Cu 24)    -79.4259         0.002674   
    472. D(Cu 28,Cu 26,Cu 23,Cu 22)    -88.5305         0.002674   
    473. D(Cu 28,Cu 26,Cu 23,Cu 25)    -44.1710         0.002674   
    474. D(Cu 27,Cu 26,Cu 23,Cu 28)     43.9217         0.002674   
    475. D(Cu 27,Cu 26,Cu 23,Cu 25)     -0.2493         0.002674   
    476. D(Cu 27,Cu 26,Cu 23,Cu 24)    -35.5042         0.002674   
    477. D(Cu 27,Cu 26,Cu 23,Cu 22)    -44.6088         0.002674   
    478. D(Cu 22,Cu 26,Cu 23,Cu 29)     79.3321         0.002674   
    479. D(Cu 22,Cu 26,Cu 23,Cu 28)     88.5305         0.002674   
    480. D(Cu 22,Cu 26,Cu 23,Cu 25)     44.3595         0.002674   
    481. D(Cu 28,Cu 26,Cu 23,Cu 29)     -9.1984         0.002674   
    482. D(Cu 28,Cu 27,Cu 26,Cu 23)    -46.0206         0.001662   
    483. D(Cu 28,Cu 27,Cu 26,O   6)    142.6264         0.001662   
    484. D(Cu 28,Cu 27,Cu 26,C   5)    154.0832         0.001662   
    485. D(Cu 25,Cu 27,Cu 26,Cu 28)     46.3500         0.001662   
    486. D(Cu 25,Cu 27,Cu 26,Cu 23)      0.3294         0.001662   
    487. D(Cu 25,Cu 27,Cu 26,Cu 22)    -46.4086         0.001662   
    488. D(Cu 25,Cu 27,Cu 26,O   6)   -171.0237         0.001662   
    489. D(Cu 25,Cu 27,Cu 26,C   5)   -159.5669         0.001662   
    490. D(Cu 22,Cu 27,Cu 26,Cu 23)     46.7380         0.001662   
    491. D(Cu 22,Cu 27,Cu 26,O   6)   -124.6151         0.001662   
    492. D(Cu 22,Cu 27,Cu 26,C   5)   -113.1583         0.001662   
    493. D(C   4,Cu 27,Cu 26,Cu 23)    168.7697         0.001662   
    494. D(C   4,Cu 27,Cu 26,Cu 22)    122.0317         0.001662   
    495. D(C   4,Cu 27,Cu 26,O   6)     -2.5834         0.001662   
    496. D(C   3,Cu 27,Cu 26,Cu 28)   -178.1786         0.001662   
    497. D(C   3,Cu 27,Cu 26,Cu 23)    135.8009         0.001662   
    498. D(C   3,Cu 27,Cu 26,Cu 22)     89.0629         0.001662   
    499. D(C   3,Cu 27,Cu 26,O   6)    -35.5522         0.001662   
    500. D(C   3,Cu 27,Cu 26,C   5)    -24.0954         0.001662   
    501. D(C   1,Cu 27,Cu 26,Cu 28)   -131.9138         0.001662   
    502. D(C   1,Cu 27,Cu 26,Cu 23)   -177.9343         0.001662   
    503. D(C   1,Cu 27,Cu 26,O   6)     10.7126         0.001662   
    504. D(C   1,Cu 27,Cu 26,C   5)     22.1694         0.001662   
    505. D(Cu 28,Cu 27,Cu 25,Cu 29)      9.3508         0.002539   
    506. D(Cu 28,Cu 27,Cu 25,Cu 23)     44.2250         0.002539   
    507. D(Cu 28,Cu 27,Cu 25,Cu 22)     89.0203         0.002539   
    508. D(Cu 26,Cu 27,Cu 25,Cu 29)    -35.1198         0.002539   
    509. D(Cu 26,Cu 27,Cu 25,Cu 24)     34.7201         0.002539   
    510. D(Cu 26,Cu 27,Cu 25,Cu 23)     -0.2456         0.002539   
    511. D(Cu 26,Cu 27,Cu 25,Cu 22)     44.5498         0.002539   
    512. D(Cu 22,Cu 27,Cu 25,Cu 29)    -79.6696         0.002539   
    513. D(Cu 22,Cu 27,Cu 25,Cu 28)    -89.0203         0.002539   
    514. D(Cu 22,Cu 27,Cu 25,Cu 24)     -9.8296         0.002539   
    515. D(Cu 22,Cu 27,Cu 25,Cu 23)    -44.7954         0.002539   
    516. D(C   4,Cu 27,Cu 25,Cu 28)    155.0689         0.002539   
    517. D(C   4,Cu 27,Cu 25,Cu 24)   -125.7404         0.002539   
    518. D(C   4,Cu 27,Cu 25,Cu 23)   -160.7061         0.002539   
    519. D(C   3,Cu 27,Cu 25,Cu 29)   -162.6188         0.002539   
    520. D(C   3,Cu 27,Cu 25,Cu 28)   -171.9695         0.002539   
    521. D(C   3,Cu 27,Cu 25,Cu 24)    -92.7788         0.002539   
    522. D(C   3,Cu 27,Cu 25,Cu 22)    -82.9492         0.002539   
    523. D(Cu 28,Cu 27,Cu 22,Cu 26)     59.5313         0.002472   
    524. D(Cu 28,Cu 27,Cu 22,Cu 25)    -63.0167         0.002472   
    525. D(Cu 28,Cu 27,Cu 22,Cu 24)    -52.7284         0.002472   
    526. D(Cu 28,Cu 27,Cu 22,Cu 23)     11.5542         0.002472   
    527. D(Cu 26,Cu 27,Cu 22,Cu 28)    -59.5313         0.002472   
    528. D(Cu 26,Cu 27,Cu 22,Cu 25)   -122.5480         0.002472   
    529. D(Cu 26,Cu 27,Cu 22,Cu 23)    -47.9771         0.002472   
    530. D(Cu 25,Cu 27,Cu 22,Cu 28)     63.0167         0.002472   
    531. D(Cu 25,Cu 27,Cu 22,Cu 26)    122.5480         0.002472   
    532. D(Cu 25,Cu 27,Cu 22,Cu 23)     74.5709         0.002472   
    533. D(C   4,Cu 27,Cu 22,Cu 28)   -156.1423         0.002472   
    534. D(C   4,Cu 27,Cu 22,Cu 26)    -96.6110         0.002472   
    535. D(C   4,Cu 27,Cu 22,Cu 25)    140.8410         0.002472   
    536. D(C   4,Cu 27,Cu 22,Cu 24)    151.1293         0.002472   
    537. D(C   4,Cu 27,Cu 22,Cu 23)   -144.5881         0.002472   
    538. D(C   3,Cu 27,Cu 22,Cu 28)   -171.4593         0.002472   
    539. D(C   3,Cu 27,Cu 22,Cu 26)   -111.9280         0.002472   
    540. D(C   3,Cu 27,Cu 22,Cu 25)    125.5240         0.002472   
    541. D(C   3,Cu 27,Cu 22,Cu 24)    135.8123         0.002472   
    542. D(C   3,Cu 27,Cu 22,Cu 23)   -159.9051         0.002472   
    543. D(C   1,Cu 27,Cu 22,Cu 28)   -112.3207         0.002472   
    544. D(Cu 25,Cu 27,Cu 22,Cu 24)     10.2883         0.002472   
    545. D(C   1,Cu 27,Cu 22,Cu 26)    -52.7894         0.002472   
    546. D(C   1,Cu 27,Cu 22,Cu 25)   -175.3374         0.002472   
    547. D(C   1,Cu 27,Cu 22,Cu 24)   -165.0491         0.002472   
    548. D(Cu 26,Cu 27,Cu 22,Cu 24)   -112.2597         0.002472   
    549. D(C   1,Cu 27,Cu 22,Cu 23)   -100.7665         0.002472   
    550. D(Cu 28,Cu 27,C   4,H  13)     73.3762         0.002011   
    551. D(Cu 28,Cu 27,C   4,C   3)   -162.7885         0.002011   
    552. D(Cu 28,Cu 27,C   4,C   1)    -43.6408         0.002011   
    553. D(Cu 26,Cu 27,C   4,H  13)    139.1027         0.002011   
    554. D(Cu 26,Cu 27,C   4,C   3)    -97.0620         0.002011   
    555. D(Cu 26,Cu 27,C   4,C   1)     22.0856         0.002011   
    556. D(C   3,Cu 27,Cu 25,Cu 23)   -127.7446         0.002539   
    557. D(Cu 25,Cu 27,C   4,H  13)    -62.5486         0.002011   
    558. D(Cu 25,Cu 27,C   4,C   3)     61.2867         0.002011   
    559. D(Cu 25,Cu 27,C   4,C   1)   -179.5656         0.002011   
    560. D(C   4,Cu 27,Cu 25,Cu 22)   -115.9107         0.002539   
    561. D(Cu 22,Cu 27,C   4,H  13)   -155.1166         0.002011   
    562. D(Cu 22,Cu 27,C   4,C   3)    -31.2814         0.002011   
    563. D(Cu 22,Cu 27,C   4,C   1)     87.8663         0.002011   
    564. D(C   4,Cu 27,Cu 25,Cu 29)    164.4197         0.002539   
    565. D(C   3,Cu 27,C   4,H  13)   -123.8353         0.002011   
    566. D(C   3,Cu 27,C   4,C   1)    119.1477         0.002011   
    567. D(C   1,Cu 27,C   4,H  13)    117.0171         0.002011   
    568. D(C   1,Cu 27,C   4,C   3)   -119.1477         0.002011   
    569. D(Cu 28,Cu 27,C   3,C   8)   -164.2495         0.001507   
    570. D(Cu 26,Cu 27,C   1,H  12)     81.3519         0.001920   
    571. D(Cu 28,Cu 27,C   3,C   0)    -33.2555         0.001507   
    572. D(Cu 26,Cu 27,Cu 25,Cu 28)    -44.4706         0.002539   
    573. D(Cu 25,Cu 27,C   3,C   8)    -35.3617         0.001507   
    574. D(Cu 25,Cu 27,C   3,C   4)   -143.5582         0.001507   
    575. D(Cu 22,Cu 27,C   3,C   8)    -96.0585         0.001507   
    576. D(Cu 28,Cu 27,Cu 25,Cu 24)     79.1907         0.002539   
    577. D(Cu 22,Cu 27,C   3,C   4)    155.7449         0.001507   
    578. D(Cu 22,Cu 27,C   3,C   0)     34.9354         0.001507   
    579. D(C   4,Cu 27,C   3,C   8)    108.1965         0.001507   
    580. D(C   1,Cu 27,Cu 26,Cu 22)    135.3277         0.001662   
    581. D(C   4,Cu 27,C   3,C   0)   -120.8095         0.001507   
    582. D(C   1,Cu 27,C   3,C   8)    147.2252         0.001507   
    583. D(C   1,Cu 27,C   3,C   4)     39.0286         0.001507   
    584. D(C   1,Cu 27,C   3,C   0)    -81.7809         0.001507   
    585. D(Cu 25,Cu 27,C   3,C   0)     95.6323         0.001507   
    586. D(Cu 28,Cu 27,C   1,H  12)     37.5421         0.001920   
    587. D(Cu 26,Cu 27,C   3,C   0)    -23.3827         0.001507   
    588. D(C   4,Cu 27,Cu 26,C   5)      8.8734         0.001662   
    589. D(Cu 28,Cu 27,C   1,C   5)    -85.4797         0.001920   
    590. D(Cu 28,Cu 27,C   1,C   4)    156.3065         0.001920   
    591. D(Cu 28,Cu 27,C   3,C   4)     87.5540         0.001507   
    592. D(C   4,Cu 27,Cu 26,Cu 28)   -145.2098         0.001662   
    593. D(Cu 26,Cu 27,C   3,C   8)   -154.3766         0.001507   
    594. D(Cu 26,Cu 27,C   1,C   5)    -41.6700         0.001920   
    595. D(Cu 26,Cu 27,C   1,C   4)   -159.8837         0.001920   
    596. D(Cu 22,Cu 27,Cu 26,Cu 28)     92.7586         0.001662   
    597. D(Cu 22,Cu 27,C   1,H  12)    123.3282         0.001920   
    598. D(Cu 22,Cu 27,C   1,C   5)      0.3064         0.001920   
    599. D(Cu 22,Cu 27,C   1,C   4)   -117.9074         0.001920   
    600. D(C   4,Cu 27,C   1,H  12)   -118.7644         0.001920   
    601. D(C   3,Cu 27,C   1,C   4)    -31.1173         0.001920   
    602. D(C   3,Cu 27,C   1,H  12)   -149.8817         0.001920   
    603. D(C   3,Cu 27,C   1,C   5)     87.0965         0.001920   
    604. D(Cu 28,Cu 27,Cu 26,Cu 22)    -92.7586         0.001662   
    605. D(C   4,Cu 27,C   1,C   5)    118.2138         0.001920   
    606. D(Cu 26,Cu 27,C   3,C   4)     97.4268         0.001507   
    607. D(Cu 29,Cu 28,Cu 26,C   5)   -139.6367         0.002681   
    608. D(Cu 27,Cu 28,Cu 26,Cu 23)    124.2313         0.002681   
    609. D(Cu 27,Cu 28,Cu 26,Cu 22)     60.1061         0.002681   
    610. D(Cu 27,Cu 28,Cu 26,C   5)    -24.8359         0.002681   
    611. D(Cu 25,Cu 28,Cu 26,Cu 27)    -49.3474         0.002681   
    612. D(Cu 25,Cu 28,Cu 26,Cu 23)     74.8839         0.002681   
    613. D(Cu 25,Cu 28,Cu 26,O   6)   -103.1003         0.002681   
    614. D(Cu 25,Cu 28,Cu 26,C   5)    -74.1833         0.002681   
    615. D(Cu 24,Cu 28,Cu 26,Cu 27)    -88.2485         0.002681   
    616. D(Cu 24,Cu 28,Cu 26,Cu 23)     35.9828         0.002681   
    617. D(Cu 24,Cu 28,Cu 26,Cu 22)    -28.1424         0.002681   
    618. D(Cu 24,Cu 28,Cu 26,O   6)   -142.0015         0.002681   
    619. D(Cu 24,Cu 28,Cu 26,C   5)   -113.0844         0.002681   
    620. D(Cu 23,Cu 28,Cu 26,Cu 22)    -64.1252         0.002681   
    621. D(Cu 23,Cu 28,Cu 26,O   6)   -177.9843         0.002681   
    622. D(Cu 23,Cu 28,Cu 26,C   5)   -149.0672         0.002681   
    623. D(Cu 22,Cu 28,Cu 26,Cu 23)     64.1252         0.002681   
    624. D(Cu 22,Cu 28,Cu 26,O   6)   -113.8590         0.002681   
    625. D(Cu 22,Cu 28,Cu 26,C   5)    -84.9419         0.002681   
    626. D(Cu 29,Cu 28,Cu 25,Cu 24)     50.0198         0.002948   
    627. D(Cu 29,Cu 28,Cu 25,Cu 23)     59.7845         0.002948   
    628. D(Cu 29,Cu 28,Cu 25,Cu 22)    106.0916         0.002948   
    629. D(Cu 27,Cu 28,Cu 25,Cu 29)   -170.5299         0.002948   
    630. D(Cu 27,Cu 28,Cu 25,Cu 24)   -120.5101         0.002948   
    631. D(Cu 27,Cu 28,Cu 25,Cu 23)   -110.7454         0.002948   
    632. D(Cu 27,Cu 28,Cu 25,Cu 22)    -64.4383         0.002948   
    633. D(Cu 26,Cu 28,Cu 25,Cu 27)     53.6048         0.002948   
    634. D(Cu 26,Cu 28,Cu 25,Cu 24)    -66.9054         0.002948   
    635. D(Cu 26,Cu 28,Cu 25,Cu 23)    -57.1407         0.002948   
    636. D(Cu 24,Cu 28,Cu 25,Cu 29)    -50.0198         0.002948   
    637. D(Cu 24,Cu 28,Cu 25,Cu 27)    120.5101         0.002948   
    638. D(Cu 24,Cu 28,Cu 25,Cu 23)      9.7647         0.002948   
    639. D(Cu 23,Cu 28,Cu 25,Cu 29)    -59.7845         0.002948   
    640. D(Cu 23,Cu 28,Cu 25,Cu 27)    110.7454         0.002948   
    641. D(Cu 23,Cu 28,Cu 25,Cu 24)     -9.7647         0.002948   
    642. D(Cu 23,Cu 28,Cu 25,Cu 22)     46.3072         0.002948   
    643. D(Cu 22,Cu 28,Cu 25,Cu 29)   -106.0916         0.002948   
    644. D(Cu 22,Cu 28,Cu 25,Cu 27)     64.4383         0.002948   
    645. D(Cu 22,Cu 28,Cu 25,Cu 24)    -56.0719         0.002948   
    646. D(Cu 29,Cu 28,Cu 24,Cu 25)    -97.7935         0.001500   
    647. D(Cu 29,Cu 28,Cu 24,Cu 23)     96.6670         0.001500   
    648. D(Cu 29,Cu 28,Cu 24,Cu 22)   -179.9655         0.001500   
    649. D(Cu 27,Cu 28,Cu 24,Cu 25)     48.8221         0.001500   
    650. D(Cu 27,Cu 28,Cu 24,Cu 23)   -116.7174         0.001500   
    651. D(Cu 27,Cu 28,Cu 24,Cu 22)    -33.3500         0.001500   
    652. D(Cu 26,Cu 28,Cu 24,Cu 25)    116.7148         0.001500   
    653. D(Cu 26,Cu 28,Cu 24,Cu 23)    -48.8247         0.001500   
    654. D(Cu 26,Cu 28,Cu 24,Cu 22)     34.5428         0.001500   
    655. D(Cu 25,Cu 28,Cu 24,Cu 29)     97.7935         0.001500   
    656. D(Cu 25,Cu 28,Cu 24,Cu 23)   -165.5395         0.001500   
    657. D(Cu 25,Cu 28,Cu 24,Cu 22)    -82.1721         0.001500   
    658. D(Cu 23,Cu 28,Cu 24,Cu 29)    -96.6670         0.001500   
    659. D(Cu 23,Cu 28,Cu 24,Cu 25)    165.5395         0.001500   
    660. D(Cu 23,Cu 28,Cu 24,Cu 22)     83.3675         0.001500   
    661. D(Cu 22,Cu 28,Cu 24,Cu 29)    179.9655         0.001500   
    662. D(Cu 22,Cu 28,Cu 24,Cu 25)     82.1721         0.001500   
    663. D(Cu 22,Cu 28,Cu 24,Cu 23)    -83.3675         0.001500   
    664. D(Cu 29,Cu 28,Cu 23,Cu 26)   -170.6852         0.002797   
    665. D(Cu 29,Cu 28,Cu 23,Cu 25)    -60.5613         0.002797   
    666. D(Cu 29,Cu 28,Cu 23,Cu 24)    -50.7303         0.002797   
    667. D(Cu 29,Cu 28,Cu 23,Cu 22)   -106.4940         0.002797   
    668. D(Cu 26,Cu 28,Cu 24,Cu 29)   -145.4917         0.001500   
    669. D(Cu 27,Cu 28,Cu 23,Cu 29)    118.2447         0.002797   
    670. D(Cu 27,Cu 28,Cu 23,Cu 26)    -52.4406         0.002797   
    671. D(Cu 27,Cu 28,Cu 23,Cu 25)     57.6833         0.002797   
    672. D(Cu 27,Cu 28,Cu 24,Cu 29)    146.6156         0.001500   
    673. D(Cu 27,Cu 28,Cu 23,Cu 24)     67.5144         0.002797   
    674. D(Cu 27,Cu 28,Cu 23,Cu 22)     11.7507         0.002797   
    675. D(Cu 26,Cu 28,Cu 23,Cu 29)    170.6852         0.002797   
    676. D(Cu 22,Cu 28,Cu 25,Cu 23)    -46.3072         0.002948   
    677. D(Cu 26,Cu 28,Cu 23,Cu 25)    110.1239         0.002797   
    678. D(Cu 26,Cu 28,Cu 23,Cu 24)    119.9550         0.002797   
    679. D(Cu 26,Cu 28,Cu 23,Cu 22)     64.1913         0.002797   
    680. D(Cu 25,Cu 28,Cu 23,Cu 29)     60.5613         0.002797   
    681. D(Cu 25,Cu 28,Cu 23,Cu 26)   -110.1239         0.002797   
    682. D(Cu 25,Cu 28,Cu 23,Cu 24)      9.8311         0.002797   
    683. D(Cu 25,Cu 28,Cu 23,Cu 22)    -45.9326         0.002797   
    684. D(Cu 24,Cu 28,Cu 25,Cu 22)     56.0719         0.002948   
    685. D(Cu 24,Cu 28,Cu 23,Cu 29)     50.7303         0.002797   
    686. D(Cu 24,Cu 28,Cu 23,Cu 26)   -119.9550         0.002797   
    687. D(Cu 24,Cu 28,Cu 23,Cu 25)     -9.8311         0.002797   
    688. D(Cu 26,Cu 28,Cu 25,Cu 22)    -10.8335         0.002948   
    689. D(Cu 24,Cu 28,Cu 23,Cu 22)    -55.7637         0.002797   
    690. D(Cu 22,Cu 28,Cu 23,Cu 29)    106.4940         0.002797   
    691. D(Cu 22,Cu 28,Cu 23,Cu 26)    -64.1913         0.002797   
    692. D(Cu 26,Cu 28,Cu 25,Cu 29)   -116.9251         0.002948   
    693. D(Cu 22,Cu 28,Cu 23,Cu 25)     45.9326         0.002797   
    694. D(Cu 22,Cu 28,Cu 23,Cu 24)     55.7637         0.002797   
    695. D(Cu 29,Cu 28,Cu 22,Cu 27)   -136.8357         0.001535   
    696. D(Cu 29,Cu 28,Cu 22,Cu 26)    134.9428         0.001535   
    697. D(Cu 29,Cu 28,Cu 22,Cu 25)    -58.2326         0.001535   
    698. D(Cu 29,Cu 28,Cu 22,Cu 24)      0.0236         0.001535   
    699. D(Cu 29,Cu 28,Cu 22,Cu 23)     57.3390         0.001535   
    700. D(Cu 29,Cu 28,Cu 25,Cu 27)    170.5299         0.002948   
    701. D(Cu 27,Cu 28,Cu 22,Cu 26)    -88.2214         0.001535   
    702. D(Cu 27,Cu 28,Cu 22,Cu 25)     78.6032         0.001535   
    703. D(Cu 27,Cu 28,Cu 22,Cu 24)    136.8593         0.001535   
    704. D(Cu 22,Cu 28,Cu 26,Cu 27)    -60.1061         0.002681   
    705. D(Cu 27,Cu 28,Cu 22,Cu 23)   -165.8252         0.001535   
    706. D(Cu 26,Cu 28,Cu 22,Cu 27)     88.2214         0.001535   
    707. D(Cu 26,Cu 28,Cu 22,Cu 25)    166.8246         0.001535   
    708. D(Cu 23,Cu 28,Cu 26,Cu 27)   -124.2313         0.002681   
    709. D(Cu 26,Cu 28,Cu 22,Cu 24)   -134.9192         0.001535   
    710. D(Cu 26,Cu 28,Cu 22,Cu 23)    -77.6038         0.001535   
    711. D(Cu 25,Cu 28,Cu 22,Cu 27)    -78.6032         0.001535   
    712. D(Cu 25,Cu 28,Cu 22,Cu 26)   -166.8246         0.001535   
    713. D(Cu 25,Cu 28,Cu 22,Cu 24)     58.2561         0.001535   
    714. D(Cu 25,Cu 28,Cu 22,Cu 23)    115.5716         0.001535   
    715. D(Cu 24,Cu 28,Cu 22,Cu 27)   -136.8593         0.001535   
    716. D(Cu 25,Cu 28,Cu 26,Cu 22)     10.7587         0.002681   
    717. D(Cu 24,Cu 28,Cu 22,Cu 26)    134.9192         0.001535   
    718. D(Cu 24,Cu 28,Cu 22,Cu 25)    -58.2561         0.001535   
    719. D(Cu 24,Cu 28,Cu 22,Cu 23)     57.3154         0.001535   
    720. D(Cu 27,Cu 28,Cu 26,O   6)    -53.7530         0.002681   
    721. D(Cu 23,Cu 28,Cu 22,Cu 27)    165.8252         0.001535   
    722. D(Cu 23,Cu 28,Cu 22,Cu 26)     77.6038         0.001535   
    723. D(Cu 23,Cu 28,Cu 22,Cu 25)   -115.5716         0.001535   
    724. D(Cu 29,Cu 28,Cu 26,O   6)   -168.5538         0.002681   
    725. D(Cu 23,Cu 28,Cu 22,Cu 24)    -57.3154         0.001535   
    726. D(Cu 29,Cu 28,Cu 27,Cu 26)    112.8076         0.002630   
    727. D(Cu 29,Cu 28,Cu 27,Cu 25)     -9.8143         0.002630   
    728. D(Cu 29,Cu 28,Cu 27,Cu 22)     53.2195         0.002630   
    729. D(Cu 29,Cu 28,Cu 27,C   4)   -163.7255         0.002630   
    730. D(Cu 29,Cu 28,Cu 27,C   1)    168.3771         0.002630   
    731. D(Cu 26,Cu 28,Cu 27,Cu 25)   -122.6218         0.002630   
    732. D(Cu 26,Cu 28,Cu 27,Cu 22)    -59.5881         0.002630   
    733. D(Cu 26,Cu 28,Cu 27,C   3)     10.7790         0.002630   
    734. D(Cu 26,Cu 28,Cu 27,C   1)     55.5696         0.002630   
    735. D(Cu 25,Cu 28,Cu 27,Cu 26)    122.6218         0.002630   
    736. D(Cu 25,Cu 28,Cu 27,C   4)   -153.9112         0.002630   
    737. D(Cu 25,Cu 28,Cu 27,C   3)    133.4008         0.002630   
    738. D(Cu 25,Cu 28,Cu 27,C   1)    178.1914         0.002630   
    739. D(Cu 24,Cu 28,Cu 27,Cu 26)     86.6468         0.002630   
    740. D(Cu 24,Cu 28,Cu 27,Cu 25)    -35.9750         0.002630   
    741. D(Cu 24,Cu 28,Cu 27,Cu 22)     27.0588         0.002630   
    742. D(Cu 24,Cu 28,Cu 27,C   4)    170.1138         0.002630   
    743. D(Cu 24,Cu 28,Cu 27,C   3)     97.4258         0.002630   
    744. D(Cu 24,Cu 28,Cu 27,C   1)    142.2164         0.002630   
    745. D(Cu 23,Cu 28,Cu 27,Cu 26)     47.9064         0.002630   
    746. D(Cu 23,Cu 28,Cu 27,Cu 25)    -74.7154         0.002630   
    747. D(Cu 23,Cu 28,Cu 27,Cu 22)    -11.6816         0.002630   
    748. D(Cu 25,Cu 28,Cu 27,Cu 22)     63.0338         0.002630   
    749. D(Cu 23,Cu 28,Cu 27,C   4)    131.3734         0.002630   
    750. D(Cu 23,Cu 28,Cu 27,C   3)     58.6854         0.002630   
    751. D(Cu 23,Cu 28,Cu 27,C   1)    103.4760         0.002630   
    752. D(Cu 26,Cu 28,Cu 27,C   4)     83.4669         0.002630   
    753. D(Cu 22,Cu 28,Cu 27,Cu 26)     59.5881         0.002630   
    754. D(Cu 22,Cu 28,Cu 27,Cu 25)    -63.0338         0.002630   
    755. D(Cu 22,Cu 28,Cu 27,C   4)    143.0550         0.002630   
    756. D(Cu 29,Cu 28,Cu 27,C   3)    123.5865         0.002630   
    757. D(Cu 22,Cu 28,Cu 27,C   3)     70.3670         0.002630   
    758. D(Cu 22,Cu 28,Cu 27,C   1)    115.1576         0.002630   
    759. D(Cu 29,Cu 28,Cu 26,Cu 27)   -114.8008         0.002681   
    760. D(Cu 29,Cu 28,Cu 26,Cu 23)      9.4305         0.002681   
    761. D(Cu 29,Cu 28,Cu 26,Cu 22)    -54.6947         0.002681   
    762. D(Cu 25,Cu 29,Cu 28,Cu 27)      9.7168         0.002662   
    763. D(Cu 25,Cu 29,Cu 28,Cu 26)     90.8286         0.002662   
    764. D(Cu 25,Cu 29,Cu 28,Cu 24)     49.9651         0.002662   
    765. D(Cu 25,Cu 29,Cu 28,Cu 23)    100.1742         0.002662   
    766. D(Cu 24,Cu 29,Cu 28,Cu 27)    -40.2483         0.002662   
    767. D(Cu 24,Cu 29,Cu 28,Cu 26)     40.8635         0.002662   
    768. D(Cu 24,Cu 29,Cu 28,Cu 25)    -49.9651         0.002662   
    769. D(Cu 24,Cu 29,Cu 28,Cu 22)     -0.0230         0.002662   
    770. D(Cu 23,Cu 29,Cu 28,Cu 27)    -90.4574         0.002662   
    771. D(Cu 23,Cu 29,Cu 28,Cu 26)     -9.3456         0.002662   
    772. D(Cu 23,Cu 29,Cu 28,Cu 24)    -50.2091         0.002662   
    773. D(Cu 23,Cu 29,Cu 28,Cu 22)    -50.2321         0.002662   
    774. D(Cu 28,Cu 29,Cu 25,Cu 27)     -9.4460         0.002249   
    775. D(Cu 28,Cu 29,Cu 25,Cu 24)   -118.2205         0.002249   
    776. D(Cu 28,Cu 29,Cu 25,Cu 23)    -58.8281         0.002249   
    777. D(Cu 28,Cu 29,Cu 25,Cu 22)    -69.1162         0.002249   
    778. D(Cu 24,Cu 29,Cu 25,Cu 28)    118.2205         0.002249   
    779. D(Cu 24,Cu 29,Cu 25,Cu 23)     59.3924         0.002249   
    780. D(Cu 24,Cu 29,Cu 25,Cu 22)     49.1043         0.002249   
    781. D(Cu 23,Cu 29,Cu 25,Cu 28)     58.8281         0.002249   
    782. D(Cu 23,Cu 29,Cu 25,Cu 27)     49.3820         0.002249   
    783. D(Cu 23,Cu 29,Cu 25,Cu 24)    -59.3924         0.002249   
    784. D(Cu 23,Cu 29,Cu 25,Cu 22)    -10.2881         0.002249   
    785. D(Cu 28,Cu 29,Cu 24,Cu 25)     49.1638         0.002231   
    786. D(Cu 28,Cu 29,Cu 24,Cu 23)    -50.0093         0.002231   
    787. D(Cu 28,Cu 29,Cu 24,Cu 22)      0.0281         0.002231   
    788. D(Cu 24,Cu 29,Cu 25,Cu 27)    108.7744         0.002249   
    789. D(Cu 25,Cu 29,Cu 24,Cu 28)    -49.1638         0.002231   
    790. D(Cu 25,Cu 29,Cu 24,Cu 23)    -99.1732         0.002231   
    791. D(Cu 25,Cu 29,Cu 24,Cu 22)    -49.1358         0.002231   
    792. D(Cu 23,Cu 29,Cu 24,Cu 28)     50.0093         0.002231   
    793. D(Cu 23,Cu 29,Cu 24,Cu 25)     99.1732         0.002231   
    794. D(Cu 23,Cu 29,Cu 24,Cu 22)     50.0374         0.002231   
    795. D(Cu 28,Cu 29,Cu 23,Cu 26)      9.2627         0.002372   
    796. D(Cu 23,Cu 29,Cu 28,Cu 25)   -100.1742         0.002662   
    797. D(Cu 28,Cu 29,Cu 23,Cu 25)     58.1298         0.002372   
    798. D(Cu 28,Cu 29,Cu 23,Cu 24)    117.6706         0.002372   
    799. D(Cu 28,Cu 29,Cu 23,Cu 22)     68.3179         0.002372   
    800. D(Cu 24,Cu 29,Cu 28,Cu 23)     50.2091         0.002662   
    801. D(Cu 25,Cu 29,Cu 23,Cu 28)    -58.1298         0.002372   
    802. D(Cu 25,Cu 29,Cu 23,Cu 26)    -48.8671         0.002372   
    803. D(Cu 25,Cu 29,Cu 23,Cu 24)     59.5409         0.002372   
    804. D(Cu 25,Cu 29,Cu 28,Cu 22)     49.9421         0.002662   
    805. D(Cu 25,Cu 29,Cu 23,Cu 22)     10.1881         0.002372   
    806. D(Cu 24,Cu 29,Cu 23,Cu 28)   -117.6706         0.002372   
    807. D(Cu 24,Cu 29,Cu 23,Cu 26)   -108.4079         0.002372   
    808. D(Cu 24,Cu 29,Cu 23,Cu 25)    -59.5409         0.002372   
    809. D(Cu 24,Cu 29,Cu 23,Cu 22)    -49.3527         0.002372   
    -----------------------------------------------------------------

Number of atoms                         .... 30
Number of degrees of freedom            .... 809

         *************************************************************
         *                GEOMETRY OPTIMIZATION CYCLE   1            *
         *************************************************************
---------------------------------
CARTESIAN COORDINATES (ANGSTROEM)
---------------------------------
  C     -0.503309   -0.366230   -1.502646
  C     -2.082203    1.454814   -0.068123
  C     -1.804783   -0.081276   -1.932193
  C      0.027714    0.222431   -0.349280
  C     -0.770813    1.144513    0.369063
  C     -2.600863    0.817549   -1.205345
  O     -3.930003    1.010049   -1.531163
  O     -2.402068   -0.658421   -3.014219
  C      1.393873   -0.150670    0.152536
  C      1.359575   -1.139043    1.344039
  N      0.772349   -2.453695    1.085530
  H      0.093141   -1.083622   -2.071994
  H     -2.677205    2.222132    0.428739
  H     -0.340344    1.699340    1.205016
  H     -4.108399    0.552014   -2.380024
  H     -1.793118   -1.294663   -3.435162
  H      1.930396    0.755233    0.479403
  H      1.978513   -0.603596   -0.663560
  H      2.394997   -1.273874    1.696911
  H      0.792516   -0.679605    2.170953
  H      1.141091   -2.840135    0.211539
  H     -0.246641   -2.360306    0.962457
  Cu    -3.000255   -2.449884    0.592940
  Cu    -5.292553   -2.537877    1.433052
  Cu    -3.613423   -4.183795    2.164497
  Cu    -2.423180   -2.145958    2.923019
  Cu    -4.557849   -0.619686    0.125694
  Cu    -2.155159   -0.263069    1.364683
  Cu    -4.269672   -0.640605    2.548969
  Cu    -4.681154   -2.672871    3.814506

----------------------------
CARTESIAN COORDINATES (A.U.)
----------------------------
  NO LB      ZA    FRAG     MASS         X           Y           Z
   0 C     6.0000    0    12.011   -0.951116   -0.692074   -2.839589
   1 C     6.0000    0    12.011   -3.934794    2.749200   -0.128733
   2 C     6.0000    0    12.011   -3.410546   -0.153589   -3.651315
   3 C     6.0000    0    12.011    0.052372    0.420333   -0.660044
   4 C     6.0000    0    12.011   -1.456625    2.162816    0.697428
   5 C     6.0000    0    12.011   -4.914918    1.544943   -2.277772
   6 O     8.0000    0    15.999   -7.426629    1.908715   -2.893478
   7 O     8.0000    0    15.999   -4.539251   -1.244236   -5.696049
   8 C     6.0000    0    12.011    2.634038   -0.284725    0.288251
   9 C     6.0000    0    12.011    2.569225   -2.152480    2.539866
  10 N     7.0000    0    14.007    1.459529   -4.636811    2.051355
  11 H     1.0000    0     1.008    0.176011   -2.047749   -3.915502
  12 H     1.0000    0     1.008   -5.059184    4.199222    0.810200
  13 H     1.0000    0     1.008   -0.643156    3.211287    2.277151
  14 H     1.0000    0     1.008   -7.763749    1.043155   -4.497593
  15 H     1.0000    0     1.008   -3.388501   -2.446559   -6.491515
  16 H     1.0000    0     1.008    3.647920    1.427183    0.905941
  17 H     1.0000    0     1.008    3.738848   -1.140631   -1.253946
  18 H     1.0000    0     1.008    4.525888   -2.407274    3.206698
  19 H     1.0000    0     1.008    1.497639   -1.284267    4.102507
  20 H     1.0000    0     1.008    2.156350   -5.367077    0.399750
  21 H     1.0000    0     1.008   -0.466083   -4.460333    1.818781
  22 Cu   29.0000    0    63.550   -5.669661   -4.629610    1.120494
  23 Cu   29.0000    0    63.550  -10.001476   -4.795892    2.708076
  24 Cu   29.0000    0    63.550   -6.828380   -7.906226    4.090307
  25 Cu   29.0000    0    63.550   -4.579147   -4.055273    5.523706
  26 Cu   29.0000    0    63.550   -8.613087   -1.171037    0.237527
  27 Cu   29.0000    0    63.550   -4.072660   -0.497129    2.578877
  28 Cu   29.0000    0    63.550   -8.068510   -1.210569    4.816853
  29 Cu   29.0000    0    63.550   -8.846099   -5.050995    7.208371

--------------------------------
INTERNAL COORDINATES (ANGSTROEM)
--------------------------------
 C      0   0   0     0.000000000000     0.00000000     0.00000000
 C      1   0   0     2.804811189885     0.00000000     0.00000000
 C      1   2   0     1.399837286154    60.09313320     0.00000000
 C      1   2   3     1.399556701961    61.25066250   181.15121139
 C      4   1   2     1.415590576814   118.56331596   359.78034036
 C      2   1   3     1.402992869369    59.90940139     0.77771503
 O      6   2   1     1.381964950440   118.90658193   174.24470578
 O      3   1   2     1.364048315074   124.35992631   181.53539581
 C      4   1   2     1.502469103419   121.05061260   177.41781094
 C      9   4   1     1.548463203527   113.28871364   258.76482713
 N     10   9   4     1.462863382560   116.52175191    62.66411894
 H      1   2   3     1.092959990627   178.80311293   343.30907003
 H      2   1   3     1.090722682486   175.42530404   281.34331845
 H      5   4   1     1.091766575782   119.81221662   186.83390082
 H      7   6   2     0.980910885957   108.29433267   175.91074793
 H      8   3   1     0.976123549081   110.16337961     0.24542000
 H      9   4   1     1.102433374913   109.72408461   138.13131034
 H      9   4   1     1.101343716345   109.71344002    20.34292448
 H     10   9   4     1.102177652484   107.67575754   185.26539861
 H     10   9   4     1.102917298820   108.80881741   301.01444765
 H     11  10   9     1.024289188095   110.20165185    46.50917965
 H     11  10   9     1.030635295382   109.66725019   289.27332041
 Cu    22  11  10     2.779741092561   172.91409004   181.63061948
 Cu    23  22  11     2.442982194035   152.24504027    95.19356510
 Cu    23  22  11     2.419134913486   100.82578079    49.73545453
 Cu    23  22  11     2.419639480806    68.38830488   103.14775264
 Cu     7   6   2     2.407363963862    89.67172377   279.94550274
 Cu     5   4   1     2.211099571654    99.61371809    75.68678144
 Cu    26  23  22     2.411541108331    75.31094489   137.74163288
 Cu    29  26  23     2.429198645072    61.74896140   106.09164286

---------------------------
INTERNAL COORDINATES (A.U.)
---------------------------
 C      0   0   0     0.000000000000     0.00000000     0.00000000
 C      1   0   0     5.300325006241     0.00000000     0.00000000
 C      1   2   0     2.645309102882    60.09313320     0.00000000
 C      1   2   3     2.644778875601    61.25066250   181.15121139
 C      4   1   2     2.675078507939   118.56331596   359.78034036
 C      2   1   3     2.651272290952    59.90940139     0.77771503
 O      6   2   1     2.611535283010   118.90658193   174.24470578
 O      3   1   2     2.577677748927   124.35992631   181.53539581
 C      4   1   2     2.839255130141   121.05061260   177.41781094
 C      9   4   1     2.926171383121   113.28871364   258.76482713
 N     10   9   4     2.764411164380   116.52175191    62.66411894
 H      1   2   3     2.065395057618   178.80311293   343.30907003
 H      2   1   3     2.061167157955   175.42530404   281.34331845
 H      5   4   1     2.063139830398   119.81221662   186.83390082
 H      7   6   2     1.853652936241   108.29433267   175.91074793
 H      8   3   1     1.844606180635   110.16337961     0.24542000
 H      9   4   1     2.083297159480   109.72408461   138.13131034
 H      9   4   1     2.081238003207   109.71344002    20.34292448
 H     10   9   4     2.082813914122   107.67575754   185.26539861
 H     10   9   4     2.084211643135   108.80881741   301.01444765
 H     11  10   9     1.935626047437   110.20165185    46.50917965
 H     11  10   9     1.947618452226   109.66725019   289.27332041
 Cu    22  11  10     5.252949388148   172.91409004   181.63061948
 Cu    23  22  11     4.616567296773   152.24504027    95.19356510
 Cu    23  22  11     4.571502467497   100.82578079    49.73545453
 Cu    23  22  11     4.572455961546    68.38830488   103.14775264
 Cu     7   6   2     4.549258596370    89.67172377   279.94550274
 Cu     5   4   1     4.178372645256    99.61371809    75.68678144
 Cu    26  23  22     4.557152255439    75.31094489   137.74163288
 Cu    29  26  23     4.590520164079    61.74896140   106.09164286

---------------------
BASIS SET INFORMATION
---------------------
There are 5 groups of distinct atoms

 Group   1 Type C   : 11s6p2d1f contracted to 5s3p2d1f pattern {62111/411/11/1}
 Group   2 Type O   : 11s6p2d1f contracted to 5s3p2d1f pattern {62111/411/11/1}
 Group   3 Type N   : 11s6p2d1f contracted to 5s3p2d1f pattern {62111/411/11/1}
 Group   4 Type H   : 5s1p contracted to 3s1p pattern {311/1}
 Group   5 Type Cu  : 17s11p7d1f contracted to 6s4p4d1f pattern {842111/6311/4111/1}

Atom   0C    basis set group =>   1
Atom   1C    basis set group =>   1
Atom   2C    basis set group =>   1
Atom   3C    basis set group =>   1
Atom   4C    basis set group =>   1
Atom   5C    basis set group =>   1
Atom   6O    basis set group =>   2
Atom   7O    basis set group =>   2
Atom   8C    basis set group =>   1
Atom   9C    basis set group =>   1
Atom  10N    basis set group =>   3
Atom  11H    basis set group =>   4
Atom  12H    basis set group =>   4
Atom  13H    basis set group =>   4
Atom  14H    basis set group =>   4
Atom  15H    basis set group =>   4
Atom  16H    basis set group =>   4
Atom  17H    basis set group =>   4
Atom  18H    basis set group =>   4
Atom  19H    basis set group =>   4
Atom  20H    basis set group =>   4
Atom  21H    basis set group =>   4
Atom  22Cu   basis set group =>   5
Atom  23Cu   basis set group =>   5
Atom  24Cu   basis set group =>   5
Atom  25Cu   basis set group =>   5
Atom  26Cu   basis set group =>   5
Atom  27Cu   basis set group =>   5
Atom  28Cu   basis set group =>   5
Atom  29Cu   basis set group =>   5
---------------------------------
AUXILIARY/J BASIS SET INFORMATION
---------------------------------
There are 5 groups of distinct atoms

 Group   1 Type C   : 12s5p4d2f1g contracted to 6s4p3d1f1g pattern {711111/2111/211/2/1}
 Group   2 Type O   : 12s5p4d2f1g contracted to 6s4p3d1f1g pattern {711111/2111/211/2/1}
 Group   3 Type N   : 12s5p4d2f1g contracted to 6s4p3d1f1g pattern {711111/2111/211/2/1}
 Group   4 Type H   : 5s2p1d contracted to 3s1p1d pattern {311/2/1}
 Group   5 Type Cu  : 19s5p5d3f3g contracted to 8s5p4d3f3g pattern {121111111/11111/2111/111/111}

Atom   0C    basis set group =>   1
Atom   1C    basis set group =>   1
Atom   2C    basis set group =>   1
Atom   3C    basis set group =>   1
Atom   4C    basis set group =>   1
Atom   5C    basis set group =>   1
Atom   6O    basis set group =>   2
Atom   7O    basis set group =>   2
Atom   8C    basis set group =>   1
Atom   9C    basis set group =>   1
Atom  10N    basis set group =>   3
Atom  11H    basis set group =>   4
Atom  12H    basis set group =>   4
Atom  13H    basis set group =>   4
Atom  14H    basis set group =>   4
Atom  15H    basis set group =>   4
Atom  16H    basis set group =>   4
Atom  17H    basis set group =>   4
Atom  18H    basis set group =>   4
Atom  19H    basis set group =>   4
Atom  20H    basis set group =>   4
Atom  21H    basis set group =>   4
Atom  22Cu   basis set group =>   5
Atom  23Cu   basis set group =>   5
Atom  24Cu   basis set group =>   5
Atom  25Cu   basis set group =>   5
Atom  26Cu   basis set group =>   5
Atom  27Cu   basis set group =>   5
Atom  28Cu   basis set group =>   5
Atom  29Cu   basis set group =>   5
[file orca_main/mainfcts.cpp, line 629]: Error : multiplicity (2) is even and number of electrons (314) is even -> impossible

