
                                 *****************
                                 * O   R   C   A *
                                 *****************

                                            #,                                       
                                            ###                                      
                                            ####                                     
                                            #####                                    
                                            ######                                   
                                           ########,                                 
                                     ,,################,,,,,                         
                               ,,#################################,,                 
                          ,,##########################################,,             
                       ,#########################################, ''#####,          
                    ,#############################################,,   '####,        
                  ,##################################################,,,,####,       
                ,###########''''           ''''###############################       
              ,#####''   ,,,,##########,,,,          '''####'''          '####       
            ,##' ,,,,###########################,,,                        '##       
           ' ,,###''''                  '''############,,,                           
         ,,##''                                '''############,,,,        ,,,,,,###''
      ,#''                                            '''#######################'''  
     '                                                          ''''####''''         
             ,#######,   #######,   ,#######,      ##                                
            ,#'     '#,  ##    ##  ,#'     '#,    #''#        ######   ,####,        
            ##       ##  ##   ,#'  ##            #'  '#       #        #'  '#        
            ##       ##  #######   ##           ,######,      #####,   #    #        
            '#,     ,#'  ##    ##  '#,     ,#' ,#      #,         ##   #,  ,#        
             '#######'   ##     ##  '#######'  #'      '#     #####' # '####'        



                  #######################################################
                  #                        -***-                        #
                  #          Department of theory and spectroscopy      #
                  #    Directorship and core code : Frank Neese         #
                  #        Max Planck Institute fuer Kohlenforschung    #
                  #                Kaiser Wilhelm Platz 1               #
                  #                 D-45470 Muelheim/Ruhr               #
                  #                      Germany                        #
                  #                                                     #
                  #                  All rights reserved                #
                  #                        -***-                        #
                  #######################################################


                         Program Version 5.0.1 -  RELEASE  -


 With contributions from (in alphabetic order):
   Daniel Aravena         : Magnetic Suceptibility
   Michael Atanasov       : Ab Initio Ligand Field Theory (pilot matlab implementation)
   Alexander A. Auer      : GIAO ZORA, VPT2 properties, NMR spectrum
   Ute Becker             : Parallelization
   Giovanni Bistoni       : ED, misc. LED, open-shell LED, HFLD
   Martin Brehm           : Molecular dynamics
   Dmytro Bykov           : SCF Hessian
   Vijay G. Chilkuri      : MRCI spin determinant printing, contributions to CSF-ICE
   Dipayan Datta          : RHF DLPNO-CCSD density
   Achintya Kumar Dutta   : EOM-CC, STEOM-CC
   Dmitry Ganyushin       : Spin-Orbit,Spin-Spin,Magnetic field MRCI
   Miquel Garcia          : C-PCM and meta-GGA Hessian, CC/C-PCM, Gaussian charge scheme
   Yang Guo               : DLPNO-NEVPT2, F12-NEVPT2, CIM, IAO-localization
   Andreas Hansen         : Spin unrestricted coupled pair/coupled cluster methods
   Benjamin Helmich-Paris : MC-RPA, TRAH-SCF, COSX integrals
   Lee Huntington         : MR-EOM, pCC
   Robert Izsak           : Overlap fitted RIJCOSX, COSX-SCS-MP3, EOM
   Marcus Kettner         : VPT2
   Christian Kollmar      : KDIIS, OOCD, Brueckner-CCSD(T), CCSD density, CASPT2, CASPT2-K
   Simone Kossmann        : Meta GGA functionals, TD-DFT gradient, OOMP2, MP2 Hessian
   Martin Krupicka        : Initial AUTO-CI
   Lucas Lang             : DCDCAS
   Marvin Lechner         : AUTO-CI (C++ implementation), FIC-MRCC
   Dagmar Lenk            : GEPOL surface, SMD
   Dimitrios Liakos       : Extrapolation schemes; Compound Job, initial MDCI parallelization
   Dimitrios Manganas     : Further ROCIS development; embedding schemes
   Dimitrios Pantazis     : SARC Basis sets
   Anastasios Papadopoulos: AUTO-CI, single reference methods and gradients
   Taras Petrenko         : DFT Hessian,TD-DFT gradient, ASA, ECA, R-Raman, ABS, FL, XAS/XES, NRVS
   Peter Pinski           : DLPNO-MP2, DLPNO-MP2 Gradient
   Christoph Reimann      : Effective Core Potentials
   Marius Retegan         : Local ZFS, SOC
   Christoph Riplinger    : Optimizer, TS searches, QM/MM, DLPNO-CCSD(T), (RO)-DLPNO pert. Triples
   Tobias Risthaus        : Range-separated hybrids, TD-DFT gradient, RPA, STAB
   Michael Roemelt        : Original ROCIS implementation
   Masaaki Saitow         : Open-shell DLPNO-CCSD energy and density
   Barbara Sandhoefer     : DKH picture change effects
   Avijit Sen             : IP-ROCIS
   Kantharuban Sivalingam : CASSCF convergence, NEVPT2, FIC-MRCI
   Bernardo de Souza      : ESD, SOC TD-DFT
   Georgi Stoychev        : AutoAux, RI-MP2 NMR, DLPNO-MP2 response
   Willem Van den Heuvel  : Paramagnetic NMR
   Boris Wezisla          : Elementary symmetry handling
   Frank Wennmohs         : Technical directorship


 We gratefully acknowledge several colleagues who have allowed us to
 interface, adapt or use parts of their codes:
   Stefan Grimme, W. Hujo, H. Kruse, P. Pracht,  : VdW corrections, initial TS optimization,
                  C. Bannwarth, S. Ehlert          DFT functionals, gCP, sTDA/sTD-DF
   Ed Valeev, F. Pavosevic, A. Kumar             : LibInt (2-el integral package), F12 methods
   Garnet Chan, S. Sharma, J. Yang, R. Olivares  : DMRG
   Ulf Ekstrom                                   : XCFun DFT Library
   Mihaly Kallay                                 : mrcc  (arbitrary order and MRCC methods)
   Jiri Pittner, Ondrej Demel                    : Mk-CCSD
   Frank Weinhold                                : gennbo (NPA and NBO analysis)
   Christopher J. Cramer and Donald G. Truhlar   : smd solvation model
   Lars Goerigk                                  : TD-DFT with DH, B97 family of functionals
   V. Asgeirsson, H. Jonsson                     : NEB implementation
   FAccTs GmbH                                   : IRC, NEB, NEB-TS, DLPNO-Multilevel, CI-OPT
                                                   MM, QMMM, 2- and 3-layer-ONIOM, Crystal-QMMM,
                                                   LR-CPCM, SF, NACMEs, symmetry and pop. for TD-DFT,
                                                   nearIR, NL-DFT gradient (VV10), updates on ESD,
                                                   ML-optimized integration grids
   S Lehtola, MJT Oliveira, MAL Marques          : LibXC Library
   Liviu Ungur et al                             : ANISO software


 Your calculation uses the libint2 library for the computation of 2-el integrals
 For citations please refer to: http://libint.valeyev.net

 Your ORCA version has been built with support for libXC version: 5.1.0
 For citations please refer to: https://tddft.org/programs/libxc/

 This ORCA versions uses:
   CBLAS   interface :  Fast vector & matrix operations
   LAPACKE interface :  Fast linear algebra routines
   SCALAPACK package :  Parallel linear algebra routines
   Shared memory     :  Shared parallel matrices
   BLAS/LAPACK       :  OpenBLAS 0.3.15  USE64BITINT DYNAMIC_ARCH NO_AFFINITY Haswell SINGLE_THREADED
        Core in use  :  Haswell
   Copyright (c) 2011-2014, The OpenBLAS Project


Your calculation utilizes the atom-pairwise dispersion correction
with the Becke-Johnson damping scheme (D3BJ)
Cite in your paper:
S.Grimme, S.Ehrlich, L.Goerigk, J Comput Chem, (2011), 32, 1456–1465 
S.Grimme, J.Antony, S.Ehrlich and H.Krieg, J.Chem.Phys., 132, (2010), 154104 
   

================================================================================

----- Orbital basis set information -----
Your calculation utilizes the basis: def2-TZVP
   F. Weigend and R. Ahlrichs, Phys. Chem. Chem. Phys. 7, 3297 (2005).

----- AuxJ basis set information -----
Your calculation utilizes the auxiliary basis: def2/J
   F. Weigend, Phys. Chem. Chem. Phys. 8, 1057 (2006).

================================================================================
                                        WARNINGS
                       Please study these warnings very carefully!
================================================================================


WARNING: your system is open-shell and RHF/RKS was chosen
  ===> : WILL SWITCH to UHF/UKS


WARNING: The environment variable RSH_COMMAND is not set!
  ===> : All Displacements for the Numerical Hessian calculation
         will be started on localhost

WARNING: Geometry Optimization
  ===> : Switching off AutoStart
         For restart on a previous wavefunction, please use MOREAD

INFO   : the flag for use of the SHARK integral package has been found!

Your calculation utilizes the atom-pairwise dispersion correction
with the Becke-Johnson damping scheme (D3BJ)
Cite in your paper:
S.Grimme, S.Ehrlich, L.Goerigk, J Comput Chem, (2011), 32, 1456–1465 
S.Grimme, J.Antony, S.Ehrlich and H.Krieg, J.Chem.Phys., 132, (2010), 154104 
   

================================================================================

----- Orbital basis set information -----
Your calculation utilizes the basis: def2-TZVP
   F. Weigend and R. Ahlrichs, Phys. Chem. Chem. Phys. 7, 3297 (2005).

----- AuxJ basis set information -----
Your calculation utilizes the auxiliary basis: def2/J
   F. Weigend, Phys. Chem. Chem. Phys. 8, 1057 (2006).

================================================================================
                                        WARNINGS
                       Please study these warnings very carefully!
================================================================================


WARNING: The environment variable RSH_COMMAND is not set!
  ===> : All Displacements for the Numerical Hessian calculation
         will be started on localhost

WARNING: Geometry Optimization
  ===> : Switching off AutoStart
         For restart on a previous wavefunction, please use MOREAD

INFO   : the flag for use of the SHARK integral package has been found!

================================================================================
                                       INPUT FILE
================================================================================
NAME = input.inp
|  1> # ! PBE D3 def2-TZVP opt numfreq
|  2> # %base "1_neutral"
|  3> # %pal nprocs=8 end
|  4> # %geom maxiter=75 end
|  5> # *xyz 0 2 
|  6> #   C   -0.00907341535028     -0.85123534527787     -0.65655865999383
|  7> #   C   -1.01854416407466      1.58526964161995      0.24567637894750
|  8> #   C   -1.30999120820659     -0.78667033981122     -0.15860725969779
|  9> #   C   0.80246125193998      0.29155333315720     -0.71321164322266
| 10> #   C   0.28315902482890      1.50913096482089     -0.25649029461730
| 11> #   C   -1.81388526864604      0.44443205597530      0.29846581001707
| 12> #   O   -3.10897086795093      0.41011913616405      0.76989280955052
| 13> #   O   -2.08129490566624     -1.91119120131562     -0.12018205533912
| 14> #   C   2.23203269901361      0.19346908427337     -1.18380810461992
| 15> #   C   3.22826761905007      0.11061963441511     -0.01465763383019
| 16> #   N   3.01423744035895     -1.05009826059029      0.87844256436549
| 17> #   H   0.35600838130143     -1.81489266808377     -1.01785967607594
| 18> #   H   -1.41965061934979      2.54042645266839      0.59521755224250
| 19> #   H   0.89678504604491      2.41107824492784     -0.29329019618700
| 20> #   H   -3.36289040870137      1.29625280630398      1.07803316989907
| 21> #   H   -2.94290283772848     -1.65950858011034      0.26493723714369
| 22> #   H   2.49285257204265      1.07413456475545     -1.79305753952959
| 23> #   H   2.35804294068994     -0.68954901514270     -1.83093723158554
| 24> #   H   4.26017851645879      0.05846990372036     -0.39046203725310
| 25> #   H   3.15704683005929      1.01635476745088      0.60445904156741
| 26> #   H   3.14377030097198     -1.92280115504418      0.35475266118078
| 27> #   H   2.04095760268418     -1.05579642913665      1.20767686366985
| 28> #   Cu  4.24078347022963     -1.16611759574011      2.52396824336812
| 29> # *
| 30> 
| 31> #	$new_job
| 32> 
| 33> # ! PBE D3 def2-TZVP opt numfreq NOAUTOSTART
| 34> # %base "2_protonated"
| 35> # %pal nprocs=8 end
| 36> # %geom maxiter=75 end
| 37> # *xyz 1 2 
| 38> # C     -1.17699   -1.60635    0.21153
| 39> # C      0.05430    0.76537   -0.59240
| 40> # C     -1.89164   -0.41153    0.24864
| 41> # C      0.15423   -1.62364   -0.21649
| 42> # C      0.78046   -0.44392   -0.62984
| 43> # C     -1.27540    0.79152   -0.16193
| 44> # O     -3.19062   -0.27781    0.64406
| 45> # O     -1.95422    1.96039   -0.15847
| 46> # C      2.24399   -0.42394   -0.99999
| 47> # C      3.11172   -0.24467    0.25146
| 48> # N      2.62510    0.97350    1.01239
| 49> # H      1.57449    0.97651    0.93726
| 50> # H      2.90818    0.96715    2.00041
| 51> # H      2.96307    1.84717    0.58617
| 52> # H     -1.66430   -2.53613    0.51405
| 53> # H      0.47251    1.69247   -0.99593
| 54> # H      0.69338   -2.57192   -0.24701
| 55> # H     -3.58401   -1.14591    0.84219
| 56> # H     -2.87225    1.78236    0.12991
| 57> # H      2.45755    0.37896   -1.72345
| 58> # H      2.55108   -1.36666   -1.47424
| 59> # H      2.99426   -1.09553    0.93406
| 60> # H      4.17647   -0.10042    0.02936
| 61> # Cu     4.50946    1.98603    4.62849
| 62> # *
| 63> 
| 64> # $new_job
| 65> 
| 66> # ! PBE D3 def2-TZVP opt numfreq NOAUTOSTART
| 67> # %base "3_deprotonated"
| 68> # %pal nprocs=8 end
| 69> # %geom maxiter=75 end
| 70> # *xyz -1 2 
| 71> # O      2.37686   -1.81267   -0.06650
| 72> # O      3.24099    0.51520   -0.52449
| 73> # N     -3.03433    0.36663   -1.35028
| 74> # C     -2.18680   -0.14342    0.99469
| 75> # C     -0.73819    0.07497    0.64719
| 76> # C     -3.04282   -0.57094   -0.21837
| 77> # C      0.13672   -1.03264    0.49295
| 78> # C     -0.23298    1.35438    0.38958
| 79> # C      1.44628   -0.82997    0.10049
| 80> # C      1.09821    1.57029   -0.01199
| 81> # C      1.99489    0.48709   -0.17409
| 82> # H     -2.61300    0.78998    1.40780
| 83> # H     -2.29242   -0.91496    1.78198
| 84> # H     -4.09182   -0.72855    0.09266
| 85> # H     -2.67025   -1.54051   -0.58863
| 86> # H     -0.21942   -2.04996    0.68988
| 87> # H     -0.89906    2.21623    0.51616
| 88> # H      1.46559    2.58432   -0.19441
| 89> # H     -2.04631    0.54836   -1.56938
| 90> # H     -3.38020    1.27190   -1.01332
| 91> # H      3.15028   -1.20010   -0.33952
| 92> # Cu    -4.64661   -0.79462   -2.90788
| 93> # *
| 94> 
| 95> # $new_job
| 96> 
| 97> ! PBE D3 def2-TZVP opt numfreq 
| 98> %base "4_2x_deprotonated"
| 99> %pal nprocs=8 end
|100> %geom maxiter=75 end
|101> *xyz -2 2
|102> O     -2.04541   -2.00882   -0.09340
|103> O     -3.33298    0.49041   -0.60374
|104> N      2.76830   -0.98650   -1.17658
|105> C      2.17495    0.33406    0.91521
|106> C      0.71063    0.37700    0.58365
|107> C      3.08869    0.17209   -0.32293
|108> C     -0.03810   -0.82481    0.41109
|109> C      0.05466    1.59261    0.35530
|110> C     -1.41523   -0.89879    0.01611
|111> C     -1.29680    1.60308   -0.05598
|112> C     -2.10220    0.43189   -0.25169
|113> H      2.48760    1.26215    1.44138
|114> H      2.39989   -0.51386    1.60323
|115> H      4.15855    0.09744   -0.01239
|116> H      2.99336    1.08212   -0.94138
|117> H      0.43923   -1.79150    0.64252
|118> H      0.60669    2.53778    0.47627
|119> H     -1.80954    2.56280   -0.22347
|120> H      1.73658   -0.95617   -1.27291
|121> H      2.89903   -1.82262   -0.59194
|122> Cu     3.80465   -1.71245   -2.58270
|123> *
|124> 
|125> $new_job
|126> 
|127> ! PBE D3 def2-TZVP opt numfreq 
|128> %base "5_zwitterion"
|129> %pal nprocs=8 end
|130> %geom maxiter=75 end
|131> *xyz 0 2
|132> O      2.73505   -2.10741    0.20340
|133> C      1.96090   -1.01083   -0.06068
|134> C      0.67426   -1.11664   -0.55996
|135> C     -0.10629    0.02665   -0.87653
|136> C     -1.59079   -0.09092   -1.04140
|137> C     -2.22313   -0.30878    0.36307
|138> N     -1.51901    0.62288    1.31690
|139> H     -1.30920    0.20045    2.22537
|140> H     -0.57472    0.85780    0.78047
|141> H     -2.03295    1.49672    1.46742
|142> C      0.48330    1.29252   -0.63537
|143> C      1.77356    1.41768   -0.11556
|144> C      2.59717    0.28597    0.24451
|145> O      3.73892    0.36553    0.74988
|146> H      2.24778   -2.89566   -0.09671
|147> H      0.24826   -2.11589   -0.72898
|148> H     -2.01031    0.82093   -1.49692
|149> H     -1.89487   -0.94154   -1.67070
|150> H     -3.30535   -0.12360    0.41208
|151> H     -2.01269   -1.32725    0.70894
|152> H     -0.07431    2.19454   -0.92022
|153> H      2.22018    2.40436    0.02256
|154> Cu    -2.92340    0.63634    4.52517
|155> **                         ****END OF INPUT****
================================================================================


                 $$$$$$$$$$$$$$$$$$$$$$$$$$$$$$$$$$$$$$$$$$$$$$ 
                 $ THERE ARE  2 JOBS TO BE PROCESSED THIS RUN $
                 $$$$$$$$$$$$$$$$$$$$$$$$$$$$$$$$$$$$$$$$$$$$$$ 




                 $$$$$$$$$$$$$$$$  JOB NUMBER  1 $$$$$$$$$$$$$$


                       *****************************
                       * Geometry Optimization Run *
                       *****************************

Geometry optimization settings:
Update method            Update   .... BFGS
Choice of coordinates    CoordSys .... Z-matrix Internals
Initial Hessian          InHess   .... Almoef's Model

Convergence Tolerances:
Energy Change            TolE     ....  5.0000e-06 Eh
Max. Gradient            TolMAXG  ....  3.0000e-04 Eh/bohr
RMS Gradient             TolRMSG  ....  1.0000e-04 Eh/bohr
Max. Displacement        TolMAXD  ....  4.0000e-03 bohr
RMS Displacement         TolRMSD  ....  2.0000e-03 bohr
Strict Convergence                ....  False
------------------------------------------------------------------------------
                        ORCA OPTIMIZATION COORDINATE SETUP
------------------------------------------------------------------------------

The optimization will be done in new redundant internal coordinates
Making redundant internal coordinates   ...  (new redundants) done
Evaluating the initial hessian          ...  (Almloef) done
Evaluating the coordinates              ...  done
Calculating the B-matrix                .... done
Calculating the G-matrix                .... done
Diagonalizing the G-matrix              .... done
Small eigenvalue found = 1.193e-02
The first mode is                       ....   55
The number of degrees of freedom        ....   57

    -----------------------------------------------------------------
                    Redundant Internal Coordinates


    -----------------------------------------------------------------
         Definition                    Initial Value    Approx d2E/dq
    -----------------------------------------------------------------
      1. B(C   4,C   3)                  1.5020         0.414045   
      2. B(C   5,N   2)                  1.4743         0.410493   
      3. B(C   5,C   3)                  1.5473         0.350568   
      4. B(C   6,C   4)                  1.4264         0.546521   
      5. B(C   7,C   4)                  1.4001         0.602143   
      6. B(C   8,C   6)                  1.4346         0.530447   
      7. B(C   8,O   0)                  1.2811         0.834787   
      8. B(C   9,C   7)                  1.4127         0.574819   
      9. B(C  10,C   9)                  1.4348         0.529980   
     10. B(C  10,C   8)                  1.5213         0.385707   
     11. B(C  10,O   1)                  1.2815         0.833714   
     12. B(H  11,C   3)                  1.1117         0.332465   
     13. B(H  12,C   3)                  1.1149         0.328657   
     14. B(H  13,C   5)                  1.1165         0.326677   
     15. B(H  14,C   5)                  1.1044         0.341532   
     16. B(H  15,C   6)                  1.1027         0.343716   
     17. B(H  16,C   7)                  1.1012         0.345541   
     18. B(H  17,C   9)                  1.1009         0.345944   
     19. B(H  18,N   2)                  1.0367         0.392351   
     20. B(H  19,N   2)                  1.0286         0.404148   
     21. B(Cu 20,H  19)                  2.1898         0.064094   
     22. B(Cu 20,N   2)                  1.8916         0.896828   
     23. A(H  18,N   2,H  19)          101.7179         0.295348   
     24. A(H  19,N   2,Cu 20)           92.3450         0.423201   
     25. A(C   5,N   2,Cu 20)          127.8012         0.478118   
     26. A(C   5,N   2,H  18)          104.3052         0.329255   
     27. A(C   5,N   2,H  19)          106.3838         0.330871   
     28. A(H  18,N   2,Cu 20)          119.1707         0.420968   
     29. A(C   4,C   3,H  11)          110.7801         0.325547   
     30. A(C   4,C   3,H  12)          110.7734         0.324931   
     31. A(H  11,C   3,H  12)          106.6246         0.283167   
     32. A(C   4,C   3,C   5)          113.7080         0.365802   
     33. A(C   5,C   3,H  11)          107.4596         0.316803   
     34. A(C   5,C   3,H  12)          107.1611         0.316210   
     35. A(C   3,C   4,C   6)          120.9537         0.395066   
     36. A(C   6,C   4,C   7)          117.7666         0.422142   
     37. A(C   3,C   4,C   7)          121.1717         0.401855   
     38. A(H  13,C   5,H  14)          107.0707         0.284086   
     39. A(C   3,C   5,H  14)          108.1113         0.318195   
     40. A(N   2,C   5,H  14)          107.7302         0.324574   
     41. A(C   3,C   5,H  13)          110.5056         0.315899   
     42. A(N   2,C   5,H  13)          108.4652         0.322215   
     43. A(N   2,C   5,C   3)          114.6607         0.362990   
     44. A(C   4,C   6,C   8)          125.4954         0.412719   
     45. A(C   8,C   6,H  15)          115.3489         0.341082   
     46. A(C   4,C   6,H  15)          119.0790         0.342791   
     47. A(C   9,C   7,H  16)          120.3429         0.346016   
     48. A(C   4,C   7,H  16)          119.5003         0.348732   
     49. A(C   4,C   7,C   9)          120.1418         0.425971   
     50. A(O   0,C   8,C   6)          122.7122         0.442361   
     51. A(C   6,C   8,C  10)          115.9030         0.388166   
     52. A(O   0,C   8,C  10)          121.3799         0.417774   
     53. A(C  10,C   9,H  17)          115.4293         0.341401   
     54. A(C   7,C   9,H  17)          119.7558         0.346084   
     55. A(C   7,C   9,C  10)          124.7964         0.416374   
     56. A(C   8,C  10,C   9)          115.8809         0.388106   
     57. A(O   1,C  10,C   9)          122.6375         0.442188   
     58. A(O   1,C  10,C   8)          121.4670         0.417678   
     59. A(N   2,H  19,Cu 20)           59.6652         0.256802   
     60. A(N   2,Cu 20,H  19)           27.9898         0.358957   
     61. D(C   7,C   4,C   3,H  11)     29.0221         0.012688   
     62. D(C   6,C   4,C   3,C   5)     84.0180         0.012688   
     63. D(C   7,C   4,C   3,H  12)    147.1359         0.012688   
     64. D(C   6,C   4,C   3,H  12)    -36.7286         0.012688   
     65. D(C   6,C   4,C   3,H  11)   -154.8425         0.012688   
     66. D(C   7,C   4,C   3,C   5)    -92.1175         0.012688   
     67. D(C   3,C   5,N   2,H  18)     45.2900         0.015393   
     68. D(H  14,C   5,C   3,H  12)   -171.4165         0.009899   
     69. D(H  14,C   5,N   2,H  18)    -75.1018         0.015393   
     70. D(H  13,C   5,N   2,H  19)     62.2604         0.015393   
     71. D(H  13,C   5,N   2,Cu 20)    -44.1216         0.015393   
     72. D(H  14,C   5,N   2,H  19)    177.8347         0.015393   
     73. D(H  13,C   5,C   3,H  11)     59.7290         0.009899   
     74. D(H  14,C   5,N   2,Cu 20)     71.4526         0.015393   
     75. D(H  13,C   5,N   2,H  18)    169.3240         0.015393   
     76. D(H  13,C   5,C   3,C   4)   -177.2931         0.009899   
     77. D(C   3,C   5,N   2,Cu 20)   -168.1556         0.015393   
     78. D(N   2,C   5,C   3,H  11)   -177.3284         0.009899   
     79. D(N   2,C   5,C   3,C   4)    -54.3505         0.009899   
     80. D(H  13,C   5,C   3,H  12)    -54.5399         0.009899   
     81. D(H  14,C   5,C   3,C   4)     65.8302         0.009899   
     82. D(H  14,C   5,C   3,H  11)    -57.1477         0.009899   
     83. D(C   3,C   5,N   2,H  19)    -61.7736         0.015393   
     84. D(N   2,C   5,C   3,H  12)     68.4028         0.009899   
     85. D(H  15,C   6,C   4,C   7)   -176.4276         0.020424   
     86. D(H  15,C   6,C   4,C   3)      7.3091         0.020424   
     87. D(C   8,C   6,C   4,C   7)      0.2318         0.020424   
     88. D(C   8,C   6,C   4,C   3)   -176.0316         0.020424   
     89. D(H  16,C   7,C   4,C   3)     -3.5013         0.025005   
     90. D(C   9,C   7,C   4,C   6)     -1.1568         0.025005   
     91. D(C   9,C   7,C   4,C   3)    175.0979         0.025005   
     92. D(H  16,C   7,C   4,C   6)   -179.7560         0.025005   
     93. D(C  10,C   8,C   6,H  15)    177.6178         0.019207   
     94. D(C  10,C   8,C   6,C   4)      0.8483         0.019207   
     95. D(O   0,C   8,C   6,H  15)     -1.5895         0.019207   
     96. D(O   0,C   8,C   6,C   4)   -178.3590         0.019207   
     97. D(H  17,C   9,C   7,H  16)     -2.0564         0.022682   
     98. D(H  17,C   9,C   7,C   4)    179.3563         0.022682   
     99. D(C  10,C   9,C   7,H  16)    179.5852         0.022682   
    100. D(C  10,C   9,C   7,C   4)      0.9979         0.022682   
    101. D(C   8,C  10,C   9,H  17)   -178.2962         0.019172   
    102. D(O   1,C  10,C   9,H  17)      0.3314         0.019172   
    103. D(O   1,C  10,C   9,C   7)    178.7533         0.019172   
    104. D(C   9,C  10,C   8,C   6)     -0.9826         0.010276   
    105. D(C   9,C  10,C   8,O   0)    178.2361         0.010276   
    106. D(C   8,C  10,C   9,C   7)      0.1258         0.019172   
    107. D(O   1,C  10,C   8,C   6)   -179.6276         0.010276   
    108. D(O   1,C  10,C   8,O   0)     -0.4090         0.010276   
    109. D(Cu 20,H  19,N   2,H  18)    120.4442         0.201842   
    110. D(Cu 20,H  19,N   2,C   5)   -130.6503         0.201842   
    111. D(H  19,Cu 20,N   2,H  18)   -104.8119         0.004892   
    112. D(H  19,Cu 20,N   2,C   5)    112.8955         0.004892   
    -----------------------------------------------------------------

Number of atoms                         .... 21
Number of degrees of freedom            .... 112

         *************************************************************
         *                GEOMETRY OPTIMIZATION CYCLE   1            *
         *************************************************************
---------------------------------
CARTESIAN COORDINATES (ANGSTROEM)
---------------------------------
  O     -2.045410   -2.008820   -0.093400
  O     -3.332980    0.490410   -0.603740
  N      2.768300   -0.986500   -1.176580
  C      2.174950    0.334060    0.915210
  C      0.710630    0.377000    0.583650
  C      3.088690    0.172090   -0.322930
  C     -0.038100   -0.824810    0.411090
  C      0.054660    1.592610    0.355300
  C     -1.415230   -0.898790    0.016110
  C     -1.296800    1.603080   -0.055980
  C     -2.102200    0.431890   -0.251690
  H      2.487600    1.262150    1.441380
  H      2.399890   -0.513860    1.603230
  H      4.158550    0.097440   -0.012390
  H      2.993360    1.082120   -0.941380
  H      0.439230   -1.791500    0.642520
  H      0.606690    2.537780    0.476270
  H     -1.809540    2.562800   -0.223470
  H      1.736580   -0.956170   -1.272910
  H      2.899030   -1.822620   -0.591940
  Cu     3.804650   -1.712450   -2.582700

----------------------------
CARTESIAN COORDINATES (A.U.)
----------------------------
  NO LB      ZA    FRAG     MASS         X           Y           Z
   0 O     8.0000    0    15.999   -3.865265   -3.796120   -0.176500
   1 O     8.0000    0    15.999   -6.298419    0.926741   -1.140903
   2 N     7.0000    0    14.007    5.231329   -1.864215   -2.223414
   3 C     6.0000    0    12.011    4.110060    0.631282    1.729496
   4 C     6.0000    0    12.011    1.342896    0.712427    1.102939
   5 C     6.0000    0    12.011    5.836778    0.325203   -0.610249
   6 C     6.0000    0    12.011   -0.071999   -1.558665    0.776848
   7 C     6.0000    0    12.011    0.103292    3.009597    0.671420
   8 C     6.0000    0    12.011   -2.674397   -1.698467    0.030443
   9 C     6.0000    0    12.011   -2.450597    3.029382   -0.105787
  10 C     6.0000    0    12.011   -3.972582    0.816154   -0.475625
  11 H     1.0000    0     1.008    4.700883    2.385118    2.723813
  12 H     1.0000    0     1.008    4.535135   -0.971055    3.029666
  13 H     1.0000    0     1.008    7.858521    0.184135   -0.023414
  14 H     1.0000    0     1.008    5.656631    2.044910   -1.778950
  15 H     1.0000    0     1.008    0.830024   -3.385444    1.214187
  16 H     1.0000    0     1.008    1.146478    4.795709    0.900020
  17 H     1.0000    0     1.008   -3.419535    4.842990   -0.422297
  18 H     1.0000    0     1.008    3.281661   -1.806899   -2.405451
  19 H     1.0000    0     1.008    5.478373   -3.444253   -1.118604
  20 Cu   29.0000    0    63.550    7.189747   -3.236062   -4.880596

--------------------------------
INTERNAL COORDINATES (ANGSTROEM)
--------------------------------
 O      0   0   0     0.000000000000     0.00000000     0.00000000
 O      1   0   0     2.857347373597     0.00000000     0.00000000
 N      1   2   0     5.038871010345   102.39375934     0.00000000
 C      3   1   2     2.543919876922    72.88684085    68.03639882
 C      4   3   1     1.502001644340    93.48107823   334.38814958
 C      3   1   2     1.474346927524   104.03822965    55.39841963
 C      5   4   3     1.426436413795   120.95366404    58.62751516
 C      5   4   3     1.400052868823   121.17167013   242.49203964
 C      1   2   3     1.281126798330    58.60528899    27.55488270
 C      8   5   4     1.412694231212   120.14183475   175.09793356
 C      2   1   3     1.281476960893    58.54693583   332.22738419
 H      4   3   1     1.111735552863   139.19432617   206.48263257
 H      4   3   1     1.114871225927    93.76019035    85.49407213
 H      6   3   1     1.116516069611   108.46516553   146.26171971
 H      6   3   1     1.104410617615   107.73017014   261.83594115
 H      7   5   4     1.102675532466   119.07897508     7.30908103
 H      8   5   4     1.101234394078   119.50032239   356.49873776
 H     10   8   5     1.100916748033   119.75577535   179.35627273
 H      3   1   2     1.036651115950    22.35281639   321.86397514
 H      3   1   2     1.028586854330    80.46269299   160.04285543
 Cu     3   1   2     1.891612587027   127.25151780   245.70472116

---------------------------
INTERNAL COORDINATES (A.U.)
---------------------------
 O      0   0   0     0.000000000000     0.00000000     0.00000000
 O      1   0   0     5.399604005577     0.00000000     0.00000000
 N      1   2   0     9.522086233708   102.39375934     0.00000000
 C      3   1   2     4.807311874022    72.88684085    68.03639882
 C      4   3   1     2.838371760502    93.48107823   334.38814958
 C      3   1   2     2.786111919409   104.03822965    55.39841963
 C      5   4   3     2.695574169525   120.95366404    58.62751516
 C      5   4   3     2.645716495087   121.17167013   242.49203964
 C      1   2   3     2.420978791672    58.60528899    27.55488270
 C      8   5   4     2.669605207961   120.14183475   175.09793356
 C      2   1   3     2.421640503018    58.54693583   332.22738419
 H      4   3   1     2.100875728255   139.19432617   206.48263257
 H      4   3   1     2.106801291591    93.76019035    85.49407213
 H      6   3   1     2.109909595687   108.46516553   146.26171971
 H      6   3   1     2.087033606687   107.73017014   261.83594115
 H      7   5   4     2.083754770937   119.07897508     7.30908103
 H      8   5   4     2.081031414062   119.50032239   356.49873776
 H     10   8   5     2.080431150030   119.75577535   179.35627273
 H      3   1   2     1.958986705569    22.35281639   321.86397514
 H      3   1   2     1.943747459635    80.46269299   160.04285543
 Cu     3   1   2     3.574629740960   127.25151780   245.70472116

---------------------
BASIS SET INFORMATION
---------------------
There are 5 groups of distinct atoms

 Group   1 Type O   : 11s6p2d1f contracted to 5s3p2d1f pattern {62111/411/11/1}
 Group   2 Type N   : 11s6p2d1f contracted to 5s3p2d1f pattern {62111/411/11/1}
 Group   3 Type C   : 11s6p2d1f contracted to 5s3p2d1f pattern {62111/411/11/1}
 Group   4 Type H   : 5s1p contracted to 3s1p pattern {311/1}
 Group   5 Type Cu  : 17s11p7d1f contracted to 6s4p4d1f pattern {842111/6311/4111/1}

Atom   0O    basis set group =>   1
Atom   1O    basis set group =>   1
Atom   2N    basis set group =>   2
Atom   3C    basis set group =>   3
Atom   4C    basis set group =>   3
Atom   5C    basis set group =>   3
Atom   6C    basis set group =>   3
Atom   7C    basis set group =>   3
Atom   8C    basis set group =>   3
Atom   9C    basis set group =>   3
Atom  10C    basis set group =>   3
Atom  11H    basis set group =>   4
Atom  12H    basis set group =>   4
Atom  13H    basis set group =>   4
Atom  14H    basis set group =>   4
Atom  15H    basis set group =>   4
Atom  16H    basis set group =>   4
Atom  17H    basis set group =>   4
Atom  18H    basis set group =>   4
Atom  19H    basis set group =>   4
Atom  20Cu   basis set group =>   5
---------------------------------
AUXILIARY/J BASIS SET INFORMATION
---------------------------------
There are 5 groups of distinct atoms

 Group   1 Type O   : 12s5p4d2f1g contracted to 6s4p3d1f1g pattern {711111/2111/211/2/1}
 Group   2 Type N   : 12s5p4d2f1g contracted to 6s4p3d1f1g pattern {711111/2111/211/2/1}
 Group   3 Type C   : 12s5p4d2f1g contracted to 6s4p3d1f1g pattern {711111/2111/211/2/1}
 Group   4 Type H   : 5s2p1d contracted to 3s1p1d pattern {311/2/1}
 Group   5 Type Cu  : 19s5p5d3f3g contracted to 8s5p4d3f3g pattern {121111111/11111/2111/111/111}

Atom   0O    basis set group =>   1
Atom   1O    basis set group =>   1
Atom   2N    basis set group =>   2
Atom   3C    basis set group =>   3
Atom   4C    basis set group =>   3
Atom   5C    basis set group =>   3
Atom   6C    basis set group =>   3
Atom   7C    basis set group =>   3
Atom   8C    basis set group =>   3
Atom   9C    basis set group =>   3
Atom  10C    basis set group =>   3
Atom  11H    basis set group =>   4
Atom  12H    basis set group =>   4
Atom  13H    basis set group =>   4
Atom  14H    basis set group =>   4
Atom  15H    basis set group =>   4
Atom  16H    basis set group =>   4
Atom  17H    basis set group =>   4
Atom  18H    basis set group =>   4
Atom  19H    basis set group =>   4
Atom  20Cu   basis set group =>   5


           ************************************************************
           *        Program running with 8 parallel MPI-processes     *
           *              working on a common directory               *
           ************************************************************
------------------------------------------------------------------------------
                           ORCA GTO INTEGRAL CALCULATION
                           -- RI-GTO INTEGRALS CHOSEN --
------------------------------------------------------------------------------
------------------------------------------------------------------------------
                   ___                                                        
                  /   \      - P O W E R E D   B Y -                         
                 /     \                                                     
                 |  |  |   _    _      __       _____    __    __             
                 |  |  |  | |  | |    /  \     |  _  \  |  |  /  |          
                  \  \/   | |  | |   /    \    | | | |  |  | /  /          
                 / \  \   | |__| |  /  /\  \   | |_| |  |  |/  /          
                |  |  |   |  __  | /  /__\  \  |    /   |      \           
                |  |  |   | |  | | |   __   |  |    \   |  |\   \          
                \     /   | |  | | |  |  |  |  | |\  \  |  | \   \       
                 \___/    |_|  |_| |__|  |__|  |_| \__\ |__|  \__/        
                                                                              
                      - O R C A' S   B I G   F R I E N D -                    
                                      &                                       
                       - I N T E G R A L  F E E D E R -                       
                                                                              
 v1 FN, 2020, v2 2021                                                         
------------------------------------------------------------------------------


Reading SHARK input file 4_2x_deprotonated.SHARKINP.tmp ... ok
----------------------
SHARK INTEGRAL PACKAGE
----------------------

Number of atoms                             ...     21
Number of basis functions                   ...    440
Number of shells                            ...    172
Maximum angular momentum                    ...      3
Integral batch strategy                     ... SHARK/LIBINT Hybrid
RI-J (if used) integral strategy            ... SPLIT-RIJ (Revised 2003 algorithm where possible)
Printlevel                                  ...      1
Contraction scheme used                     ... SEGMENTED contraction
Coulomb Range Separation                    ... NOT USED
Exchange Range Separation                   ... NOT USED
Finite Nucleus Model                        ... NOT USED
Auxiliary Coulomb fitting basis             ... AVAILABLE
   # of basis functions in Aux-J            ...    729
   # of shells in Aux-J                     ...    233
   Maximum angular momentum in Aux-J        ...      4
Auxiliary J/K fitting basis                 ... NOT available
Auxiliary Correlation fitting basis         ... NOT available
Auxiliary 'external' fitting basis          ... NOT available
Integral threshold                          ...     2.500000e-11
Primitive cut-off                           ...     2.500000e-12
Primitive pair pre-selection threshold      ...     2.500000e-12

Calculating pre-screening integrals         ... done (  0.1 sec) Dimension = 172
Organizing shell pair data                  ... done (  0.1 sec)
Shell pair information
Total number of shell pairs                 ...     14878
Shell pairs after pre-screening             ...     12249
Total number of primitive shell pairs       ...     48533
Primitive shell pairs kept                  ...     27650
          la=0 lb=0:   3144 shell pairs
          la=1 lb=0:   3423 shell pairs
          la=1 lb=1:    949 shell pairs
          la=2 lb=0:   1854 shell pairs
          la=2 lb=1:   1012 shell pairs
          la=2 lb=2:    286 shell pairs
          la=3 lb=0:    818 shell pairs
          la=3 lb=1:    456 shell pairs
          la=3 lb=2:    247 shell pairs
          la=3 lb=3:     60 shell pairs

Calculating one electron integrals          ... done (  0.0 sec)
Calculating RI/J V-Matrix + Cholesky decomp.... done (  0.0 sec)
Calculating Nuclear repulsion               ... done (  0.0 sec) ENN=    847.864533469178 Eh

SHARK setup successfully completed in   0.3 seconds

Maximum memory used throughout the entire GTOINT-calculation: 21.5 MB


           ************************************************************
           *        Program running with 8 parallel MPI-processes     *
           *              working on a common directory               *
           ************************************************************
-------------------------------------------------------------------------------
                                 ORCA SCF
-------------------------------------------------------------------------------

------------
SCF SETTINGS
------------
Hamiltonian:
 Density Functional     Method          .... DFT(GTOs)
 Exchange Functional    Exchange        .... PBE
   PBE kappa parameter   XKappa         ....  0.804000
   PBE mue parameter    XMuePBE         ....  0.219520
 Correlation Functional Correlation     .... PBE
   PBE beta parameter  CBetaPBE         ....  0.066725
 LDA part of GGA corr.  LDAOpt          .... PW91-LDA
 Gradients option       PostSCFGGA      .... off
   Density functional embedding theory  .... OFF
   NL short-range parameter             ....  6.400000
 RI-approximation to the Coulomb term is turned on
   Number of AuxJ basis functions       .... 729


General Settings:
 Integral files         IntName         .... 4_2x_deprotonated
 Hartree-Fock type      HFTyp           .... UHF
 Total Charge           Charge          ....   -2
 Multiplicity           Mult            ....    2
 Number of Electrons    NEL             ....  111
 Basis Dimension        Dim             ....  440
 Nuclear Repulsion      ENuc            ....    847.8645334692 Eh

Convergence Acceleration:
 DIIS                   CNVDIIS         .... on
   Start iteration      DIISMaxIt       ....    12
   Startup error        DIISStart       ....  0.200000
   # of expansion vecs  DIISMaxEq       ....     5
   Bias factor          DIISBfac        ....   1.050
   Max. coefficient     DIISMaxC        ....  10.000
 Trust-Rad. Augm. Hess. CNVTRAH         .... auto
   Auto Start mean grad. ratio tolernc. ....  1.125000
   Auto Start start iteration           ....    20
   Auto Start num. interpolation iter.  ....    10
   Max. Number of Micro iterations      ....    16
   Max. Number of Macro iterations      .... Maxiter - #DIIS iter
   Number of Davidson start vectors     ....     2
   Converg. threshold I  (grad. norm)   ....   1.000e-05
   Converg. threshold II (energy diff.) ....   1.000e-08
   Grad. Scal. Fac. for Micro threshold ....   0.100
   Minimum threshold for Micro iter.    ....   0.010
   NR start threshold (gradient norm)   ....   0.001
   Initial trust radius                 ....   0.400
   Minimum AH scaling param. (alpha)    ....   1.000
   Maximum AH scaling param. (alpha)    .... 1000.000
   Orbital update algorithm             .... Taylor
   White noise on init. David. guess    .... on
   Maximum white noise                  ....   0.010
   Quad. conv. algorithm                .... NR
 SOSCF                  CNVSOSCF        .... off
 Level Shifting         CNVShift        .... on
   Level shift para.    LevelShift      ....    0.2500
   Turn off err/grad.   ShiftErr        ....    0.0010
 Zerner damping         CNVZerner       .... off
 Static damping         CNVDamp         .... on
   Fraction old density DampFac         ....    0.7000
   Max. Damping (<1)    DampMax         ....    0.9800
   Min. Damping (>=0)   DampMin         ....    0.0000
   Turn off err/grad.   DampErr         ....    0.1000
 Fernandez-Rico         CNVRico         .... off

SCF Procedure:
 Maximum # iterations   MaxIter         ....   125
 SCF integral mode      SCFMode         .... Direct
   Integral package                     .... SHARK and LIBINT hybrid scheme
 Reset frequency        DirectResetFreq ....    20
 Integral Threshold     Thresh          ....  2.500e-11 Eh
 Primitive CutOff       TCut            ....  2.500e-12 Eh

Convergence Tolerance:
 Convergence Check Mode ConvCheckMode   .... Total+1el-Energy
 Convergence forced     ConvForced      .... 0
 Energy Change          TolE            ....  1.000e-08 Eh
 1-El. energy change                    ....  1.000e-05 Eh
 DIIS Error             TolErr          ....  5.000e-07


Diagonalization of the overlap matrix:
Smallest eigenvalue                        ... 1.298e-05
Time for diagonalization                   ...    0.035 sec
Threshold for overlap eigenvalues          ... 1.000e-08
Number of eigenvalues below threshold      ... 0
Time for construction of square roots      ...    0.022 sec
Total time needed                          ...    0.058 sec

Time for model grid setup =    0.126 sec

------------------------------
INITIAL GUESS: MODEL POTENTIAL
------------------------------
Loading Hartree-Fock densities                     ... done
Calculating cut-offs                               ... done
Initializing the effective Hamiltonian             ... done
Setting up the integral package (SHARK)            ... done
Starting the Coulomb interaction                   ... done (   0.2 sec)
Reading the grid                                   ... done
Mapping shells                                     ... done
Starting the XC term evaluation                    ... done (   0.1 sec)
  promolecular density results
     # of electrons  =    109.001803709
     EX              =   -131.798240435
     EC              =     -4.018540132
     EX+EC           =   -135.816780568
Transforming the Hamiltonian                       ... done (   0.0 sec)
Diagonalizing the Hamiltonian                      ... done (   0.0 sec)
Back transforming the eigenvectors                 ... done (   0.0 sec)
Now organizing SCF variables                       ... done
                      ------------------
                      INITIAL GUESS DONE (   0.5 sec)
                      ------------------
-------------------
DFT GRID GENERATION
-------------------

General Integration Accuracy     IntAcc      ... 4.388
Radial Grid Type                 RadialGrid  ... OptM3 with GC (2021)
Angular Grid (max. ang.)         AngularGrid ... 4 (Lebedev-302)
Angular grid pruning method      GridPruning ... 4 (adaptive)
Weight generation scheme         WeightScheme... Becke
Basis function cutoff            BFCut       ... 1.0000e-11
Integration weight cutoff        WCut        ... 1.0000e-14
Angular grids for H and He will be reduced by one unit
Partially contracted basis set               ... off
Rotationally invariant grid construction     ... off

Total number of grid points                  ...   105949
Total number of batches                      ...     1665
Average number of points per batch           ...       63
Average number of grid points per atom       ...     5045
Time for grid setup =    0.608 sec

--------------
SCF ITERATIONS
--------------
ITER       Energy         Delta-E        Max-DP      RMS-DP      [F,P]     Damp
               ***  Starting incremental Fock matrix formation  ***
  0  -2154.6443225387   0.000000000000 1.35225508  0.01120428  0.3406016 0.7000
  1  -2154.9654420676  -0.321119528895 0.61300979  0.00625066  0.0890784 0.7000
                               ***Turning on DIIS***
  2  -2155.0209805069  -0.055538439321 0.79278467  0.00500174  0.0734471 0.0000
  3  -2155.1087623368  -0.087781829880 0.21036663  0.00216244  0.1032826 0.7000
  4  -2155.1408270191  -0.032064682306 0.68450325  0.00748725  0.0749520 0.0000
  5  -2155.2196329930  -0.078805973951 0.24556963  0.00152018  0.0834807 0.0000
  6  -2155.2421526755  -0.022519682487 0.18772520  0.00106937  0.0452117 0.0000
  7  -2155.2517956765  -0.009643000973 0.14368025  0.00117292  0.0398440 0.0000
  8  -2155.2540857977  -0.002290121157 0.06439202  0.00036588  0.0384991 0.0000
  9  -2155.2596967196  -0.005610921967 0.06912445  0.00035680  0.0211252 0.0000
 10  -2155.2622772914  -0.002580571727 0.04666416  0.00027725  0.0104434 0.0000
 11  -2155.2631782611  -0.000900969716 0.03057518  0.00027969  0.0138203 0.0000
 12  -2155.2640921761  -0.000913915039 0.02576397  0.00018078  0.0124635 0.0000
 13  -2155.2645049474  -0.000412771256 0.03025528  0.00026580  0.0107269 0.0000
 14  -2155.2651265964  -0.000621649055 0.03902654  0.00029611  0.0159715 0.0000
 15  -2155.2654171667  -0.000290570310 0.01248416  0.00012172  0.0132194 0.0000
 16  -2155.2661518474  -0.000734680689 0.01183943  0.00010448  0.0025843 0.0000
 17  -2155.2666224235  -0.000470576066 0.01130631  0.00008932  0.0016652 0.0000
 18  -2155.2670904030  -0.000467979495 0.01166357  0.00009096  0.0015675 0.0000
 19  -2155.2675902488  -0.000499845798 0.01317102  0.00009241  0.0018019 0.0000
               *** Restarting incremental Fock matrix formation ***
                                   *** Resetting DIIS ***
 20  -2155.2681174230  -0.000527174166 0.01935787  0.00013016  0.0021175 0.0000
 21  -2155.2686712223  -0.000553799331 0.01407776  0.00009957  0.0036703 0.0000
 22  -2155.2692898596  -0.000618637344 0.01582043  0.00010225  0.0015983 0.0000
 23  -2155.2698889385  -0.000599078833 0.01853276  0.00010523  0.0016410 0.0000

 WARNING: the maximum gradient error descreased on average only by a factor   1.1
          during the last 20 iterations

                      *** Initiating the TRAH-SCF procedure ***


TRAH GRID
---------

General Integration Accuracy     IntAcc      ... 3.467
Radial Grid Type                 RadialGrid  ... OptM3 with GC (2021)
Angular Grid (max. ang.)         AngularGrid ... 1 (Lebedev-50)
Angular grid pruning method      GridPruning ... 4 (adaptive)
Weight generation scheme         WeightScheme... Becke
Basis function cutoff            BFCut       ... 1.0000e-11
Integration weight cutoff        WCut        ... 1.0000e-14
Angular grids for H and He will be reduced by one unit
Partially contracted basis set               ... off
Rotationally invariant grid construction     ... off

Total number of grid points                  ...    18064
Total number of batches                      ...      292
Average number of points per batch           ...       61
Average number of grid points per atom       ...      860

 --------------------------------------------------------------------------------------------
   Iter.        energy            ||Error||_2        Shift      TRadius  Mac/Mic        Rej.
 --------------------------------------------------------------------------------------------
WARNING: 1 diagonal Hessian elements are negative!
    0      -2155.270440997564     1.496868e-02                     0.400 (TRAH MAcro)   No
WARNING : negative HOMO - LUMO gap : (op =  beta) -0.005116
    0     dE    -9.553386e-05     2.621457e-02    -9.5530e-05      0.006 (TRAH MIcro)
    0     dE    -5.518555e-04     3.640900e-02    -5.4918e-04      0.070 (TRAH MIcro)
    0     dE    -8.715777e-04     3.469219e-02    -8.6050e-04      0.113 (TRAH MIcro)
    0     dE    -1.231591e-03     3.502384e-02    -1.1965e-03      0.171 (TRAH MIcro)
    0     dE    -1.602018e-03     3.770112e-02    -1.5315e-03      0.215 (TRAH MIcro)
    0     dE    -2.981963e-03     4.737125e-02    -2.6955e-03      0.326 (TRAH MIcro)
    0     dE    -4.826887e-03     4.683126e-02    -8.1582e-03      0.400 (TRAH MIcro)
    0     dE    -5.866553e-03     1.913929e-02    -1.4478e-02      0.400 (TRAH MIcro)
    0     dE    -6.032908e-03     6.552030e-03    -1.5538e-02      0.400 (TRAH MIcro)
    0     dE    -6.055537e-03     3.579271e-03    -1.5668e-02      0.400 (TRAH MIcro)
    0     dE    -6.060896e-03     1.212595e-03    -1.5695e-02      0.400 (TRAH MIcro)
    1      -2155.274142311770     3.770329e-02                     0.400 (TRAH MAcro)   No
WARNING : small    HOMO - LUMO gap : (op =  beta) 0.000378
    1     dE    -3.928177e-04     4.511780e-02    -3.9277e-04      0.010 (TRAH MIcro)
    1     dE    -9.544008e-04     1.709649e-02    -9.5013e-04      0.067 (TRAH MIcro)
    1     dE    -1.104649e-03     1.128242e-02    -1.1000e-03      0.065 (TRAH MIcro)
    1     dE    -1.227734e-03     4.721686e-03    -1.2209e-03      0.075 (TRAH MIcro)
    1     dE    -1.239279e-03     2.477481e-03    -1.2318e-03      0.078 (TRAH MIcro)
    2      -2155.275419653629     2.597722e-03                     0.480 (TRAH MAcro)   No
WARNING : small    HOMO - LUMO gap : (op =  beta) 0.002355
    2     dE    -1.209693e-06     6.582571e-03    -1.2097e-06      0.000 (TRAH MIcro)
    2     dE    -8.460662e-06     5.462259e-03    -8.4601e-06      0.008 (TRAH MIcro)
    2     dE    -3.033465e-05     4.713729e-03    -3.0314e-05      0.026 (TRAH MIcro)
    2     dE    -3.696258e-05     1.636552e-03    -3.6921e-05      0.034 (TRAH MIcro)
    2     dE    -3.794222e-05     1.545183e-03    -3.7897e-05      0.034 (TRAH MIcro)
    2     dE    -3.824629e-05     3.438225e-04    -3.8201e-05      0.034 (TRAH MIcro)
    2     dE    -3.828672e-05     2.182609e-04    -3.8241e-05      0.034 (TRAH MIcro)
    3      -2155.275458105228     4.716069e-04                           (NR   MAcro)
WARNING : small    HOMO - LUMO gap : (op =  beta) 0.002383
    3     dE    -8.105088e-08     3.287092e-04                           (NR   MIcro)
    3     dE    -1.164053e-07     1.754478e-04                           (NR   MIcro)
    3     dE    -1.231160e-07     7.915316e-05                           (NR   MIcro)
    3     dE    -1.243845e-07     2.890618e-05                           (NR   MIcro)
    3     dE    -1.247817e-07     1.502716e-05                           (NR   MIcro)
    3     dE    -1.248704e-07     8.013850e-06                           (NR   MIcro)
    3     dE    -1.248856e-07     4.105453e-06                           (NR   MIcro)
    3     dE    -1.248890e-07     1.699518e-06                           (NR   MIcro)
    4      -2155.275458230418     1.838919e-06                           (NR   MAcro)
WARNING : small    HOMO - LUMO gap : (op =  beta) 0.002374
    4     dE    -3.799139e-13     1.562618e-06                           (NR   MIcro)
    4     dE    -1.043044e-12     1.111561e-06                           (NR   MIcro)
    4     dE    -1.557854e-12     4.098364e-07                           (NR   MIcro)
    5      -2155.275458230384     4.098692e-07                           (NR   MAcro)
WARNING : small    HOMO - LUMO gap : (op =  beta) 0.002374

               *****************************************************
               *                     SUCCESS                       *
               *           SCF CONVERGED AFTER  64 CYCLES          *
               *****************************************************


----------------
TOTAL SCF ENERGY
----------------

Total Energy       :        -2155.27545823 Eh          -58648.02683 eV

Components:
Nuclear Repulsion  :          847.86453347 Eh           23071.56689 eV
Electronic Energy  :        -3003.13999170 Eh          -81719.59372 eV
One Electron Energy:        -4702.94037148 Eh         -127973.51356 eV
Two Electron Energy:         1699.80037978 Eh           46253.91984 eV

Virial components:
Potential Energy   :        -4306.00867206 Eh         -117172.45290 eV
Kinetic Energy     :         2150.73321383 Eh           58524.42607 eV
Virial Ratio       :            2.00211195


DFT components:
N(Alpha)           :       55.999823006887 electrons
N(Beta)            :       54.999838258596 electrons
N(Total)           :      110.999661265484 electrons
E(X)               :     -133.434499432926 Eh       
E(C)               :       -4.083968843518 Eh       
E(XC)              :     -137.518468276444 Eh       
DFET-embed. en.    :        0.000000000000 Eh       

---------------
SCF CONVERGENCE
---------------

  Last Energy change         ...    3.4106e-11  Tolerance :   1.0000e-08
  Last Orbital Gradient      ...    4.0987e-07  Tolerance :   1.0000e-05
  Last Orbital Rotation      ...    3.8497e-06

             **** THE GBW FILE WAS UPDATED (4_2x_deprotonated.gbw) ****
             **** DENSITY 4_2x_deprotonated.scfp WAS UPDATED ****
             **** ENERGY FILE WAS UPDATED (4_2x_deprotonated.en.tmp) ****
----------------------
UHF SPIN CONTAMINATION
----------------------

Warning: in a DFT calculation there is little theoretical justification to 
         calculate <S**2> as in Hartree-Fock theory. We will do it anyways
         but you should keep in mind that the values have only limited relevance

Expectation value of <S**2>     :     0.753828
Ideal value S*(S+1) for S=0.5   :     0.750000
Deviation                       :     0.003828

             **** THE GBW FILE WAS UPDATED (4_2x_deprotonated.gbw) ****
             **** DENSITY 4_2x_deprotonated.scfp WAS UPDATED ****
----------------
ORBITAL ENERGIES
----------------
                 SPIN UP ORBITALS
  NO   OCC          E(Eh)            E(eV) 
   0   1.0000    -321.231114     -8741.1430 
   1   1.0000     -38.003679     -1034.1327 
   2   1.0000     -33.295377      -906.0133 
   3   1.0000     -33.293680      -905.9671 
   4   1.0000     -33.293644      -905.9661 
   5   1.0000     -18.414879      -501.0943 
   6   1.0000     -18.412729      -501.0358 
   7   1.0000     -13.789457      -375.2302 
   8   1.0000      -9.703635      -264.0493 
   9   1.0000      -9.671630      -263.1784 
  10   1.0000      -9.647151      -262.5123 
  11   1.0000      -9.645001      -262.4538 
  12   1.0000      -9.628481      -262.0043 
  13   1.0000      -9.621109      -261.8037 
  14   1.0000      -9.607114      -261.4229 
  15   1.0000      -9.602810      -261.3057 
  16   1.0000      -3.834023      -104.3291 
  17   1.0000      -2.372365       -64.5553 
  18   1.0000      -2.367246       -64.4160 
  19   1.0000      -2.367069       -64.4112 
  20   1.0000      -0.622050       -16.9268 
  21   1.0000      -0.619011       -16.8442 
  22   1.0000      -0.593920       -16.1614 
  23   1.0000      -0.498979       -13.5779 
  24   1.0000      -0.446504       -12.1500 
  25   1.0000      -0.385321       -10.4851 
  26   1.0000      -0.363447        -9.8899 
  27   1.0000      -0.321418        -8.7462 
  28   1.0000      -0.255895        -6.9633 
  29   1.0000      -0.255053        -6.9403 
  30   1.0000      -0.232164        -6.3175 
  31   1.0000      -0.192634        -5.2418 
  32   1.0000      -0.180904        -4.9226 
  33   1.0000      -0.167191        -4.5495 
  34   1.0000      -0.145369        -3.9557 
  35   1.0000      -0.131604        -3.5811 
  36   1.0000      -0.111397        -3.0313 
  37   1.0000      -0.098092        -2.6692 
  38   1.0000      -0.083348        -2.2680 
  39   1.0000      -0.080949        -2.2027 
  40   1.0000      -0.071753        -1.9525 
  41   1.0000      -0.071185        -1.9370 
  42   1.0000      -0.045060        -1.2262 
  43   1.0000      -0.036722        -0.9992 
  44   1.0000      -0.009833        -0.2676 
  45   1.0000      -0.005898        -0.1605 
  46   1.0000       0.057716         1.5705 
  47   1.0000       0.059678         1.6239 
  48   1.0000       0.060105         1.6355 
  49   1.0000       0.060567         1.6481 
  50   1.0000       0.063216         1.7202 
  51   1.0000       0.074093         2.0162 
  52   1.0000       0.081866         2.2277 
  53   1.0000       0.108443         2.9509 
  54   1.0000       0.123912         3.3718 
  55   1.0000       0.130726         3.5572 
  56   0.0000       0.208246         5.6667 
  57   0.0000       0.231451         6.2981 
  58   0.0000       0.242831         6.6078 
  59   0.0000       0.247438         6.7331 
  60   0.0000       0.253288         6.8923 
  61   0.0000       0.264348         7.1933 
  62   0.0000       0.273307         7.4371 
  63   0.0000       0.277364         7.5475 
  64   0.0000       0.289829         7.8867 
  65   0.0000       0.291489         7.9318 
  66   0.0000       0.304020         8.2728 
  67   0.0000       0.308656         8.3989 
  68   0.0000       0.317764         8.6468 
  69   0.0000       0.324742         8.8367 
  70   0.0000       0.342099         9.3090 
  71   0.0000       0.349350         9.5063 
  72   0.0000       0.357175         9.7192 
  73   0.0000       0.367710        10.0059 
  74   0.0000       0.371996        10.1225 
  75   0.0000       0.381209        10.3732 
  76   0.0000       0.384846        10.4722 
  77   0.0000       0.400130        10.8881 
  78   0.0000       0.407348        11.0845 
  79   0.0000       0.412765        11.2319 
  80   0.0000       0.424093        11.5402 
  81   0.0000       0.433513        11.7965 
  82   0.0000       0.437387        11.9019 
  83   0.0000       0.450523        12.2594 
  84   0.0000       0.462079        12.5738 
  85   0.0000       0.467631        12.7249 
  86   0.0000       0.481644        13.1062 
  87   0.0000       0.487781        13.2732 
  88   0.0000       0.498766        13.5721 
  89   0.0000       0.504692        13.7334 
  90   0.0000       0.517181        14.0732 
  91   0.0000       0.521027        14.1779 
  92   0.0000       0.526830        14.3358 
  93   0.0000       0.534479        14.5439 
  94   0.0000       0.544523        14.8172 
  95   0.0000       0.558570        15.1995 
  96   0.0000       0.568033        15.4570 
  97   0.0000       0.572645        15.5825 
  98   0.0000       0.579109        15.7583 
  99   0.0000       0.584102        15.8942 
 100   0.0000       0.590596        16.0709 
 101   0.0000       0.593814        16.1585 
 102   0.0000       0.599527        16.3140 
 103   0.0000       0.601996        16.3812 
 104   0.0000       0.617121        16.7927 
 105   0.0000       0.620885        16.8951 
 106   0.0000       0.625290        17.0150 
 107   0.0000       0.635252        17.2861 
 108   0.0000       0.640875        17.4391 
 109   0.0000       0.644128        17.5276 
 110   0.0000       0.653446        17.7812 
 111   0.0000       0.654075        17.7983 
 112   0.0000       0.656806        17.8726 
 113   0.0000       0.679566        18.4919 
 114   0.0000       0.685954        18.6657 
 115   0.0000       0.693087        18.8599 
 116   0.0000       0.702081        19.1046 
 117   0.0000       0.705764        19.2048 
 118   0.0000       0.716271        19.4907 
 119   0.0000       0.747225        20.3330 
 120   0.0000       0.752380        20.4733 
 121   0.0000       0.766056        20.8455 
 122   0.0000       0.779106        21.2006 
 123   0.0000       0.785322        21.3697 
 124   0.0000       0.801861        21.8198 
 125   0.0000       0.813664        22.1409 
 126   0.0000       0.825241        22.4559 
 127   0.0000       0.841278        22.8923 
 128   0.0000       0.848712        23.0946 
 129   0.0000       0.859229        23.3808 
 130   0.0000       0.868605        23.6359 
 131   0.0000       0.872998        23.7555 
 132   0.0000       0.899551        24.4780 
 133   0.0000       0.915436        24.9103 
 134   0.0000       0.922253        25.0958 
 135   0.0000       0.931648        25.3514 
 136   0.0000       0.954697        25.9786 
 137   0.0000       0.971264        26.4294 
 138   0.0000       0.978155        26.6170 
 139   0.0000       0.991743        26.9867 
 140   0.0000       1.002050        27.2672 
 141   0.0000       1.010698        27.5025 
 142   0.0000       1.030918        28.0527 
 143   0.0000       1.036873        28.2148 
 144   0.0000       1.042715        28.3737 
 145   0.0000       1.058956        28.8157 
 146   0.0000       1.065809        29.0021 
 147   0.0000       1.076511        29.2933 
 148   0.0000       1.084549        29.5121 
 149   0.0000       1.097321        29.8596 
 150   0.0000       1.101211        29.9655 
 151   0.0000       1.104754        30.0619 
 152   0.0000       1.122054        30.5327 
 153   0.0000       1.125116        30.6160 
 154   0.0000       1.145651        31.1747 
 155   0.0000       1.153542        31.3895 
 156   0.0000       1.175239        31.9799 
 157   0.0000       1.198350        32.6088 
 158   0.0000       1.213904        33.0320 
 159   0.0000       1.239872        33.7386 
 160   0.0000       1.247352        33.9422 
 161   0.0000       1.264681        34.4137 
 162   0.0000       1.272641        34.6303 
 163   0.0000       1.290938        35.1282 
 164   0.0000       1.294276        35.2190 
 165   0.0000       1.314781        35.7770 
 166   0.0000       1.326858        36.1056 
 167   0.0000       1.336635        36.3717 
 168   0.0000       1.353079        36.8192 
 169   0.0000       1.392405        37.8893 
 170   0.0000       1.398406        38.0526 
 171   0.0000       1.420639        38.6576 
 172   0.0000       1.433944        39.0196 
 173   0.0000       1.447186        39.3799 
 174   0.0000       1.463111        39.8133 
 175   0.0000       1.476515        40.1780 
 176   0.0000       1.499417        40.8012 
 177   0.0000       1.504908        40.9506 
 178   0.0000       1.530417        41.6448 
 179   0.0000       1.538310        41.8595 
 180   0.0000       1.553570        42.2748 
 181   0.0000       1.561376        42.4872 
 182   0.0000       1.582996        43.0755 
 183   0.0000       1.587046        43.1857 
 184   0.0000       1.620876        44.1063 
 185   0.0000       1.640578        44.6424 
 186   0.0000       1.644962        44.7617 
 187   0.0000       1.673560        45.5399 
 188   0.0000       1.688329        45.9418 
 189   0.0000       1.698037        46.2059 
 190   0.0000       1.708245        46.4837 
 191   0.0000       1.715306        46.6758 
 192   0.0000       1.724591        46.9285 
 193   0.0000       1.741248        47.3818 
 194   0.0000       1.748687        47.5842 
 195   0.0000       1.761550        47.9342 
 196   0.0000       1.765911        48.0529 
 197   0.0000       1.778965        48.4081 
 198   0.0000       1.786737        48.6196 
 199   0.0000       1.804173        49.0940 
 200   0.0000       1.815266        49.3959 
 201   0.0000       1.845175        50.2098 
 202   0.0000       1.878543        51.1177 
 203   0.0000       1.887551        51.3629 
 204   0.0000       1.904805        51.8324 
 205   0.0000       1.922356        52.3100 
 206   0.0000       1.936167        52.6858 
 207   0.0000       1.952386        53.1271 
 208   0.0000       1.977302        53.8051 
 209   0.0000       1.986055        54.0433 
 210   0.0000       1.986491        54.0552 
 211   0.0000       2.000929        54.4481 
 212   0.0000       2.016251        54.8650 
 213   0.0000       2.024510        55.0897 
 214   0.0000       2.053947        55.8907 
 215   0.0000       2.062397        56.1207 
 216   0.0000       2.096313        57.0436 
 217   0.0000       2.102660        57.2163 
 218   0.0000       2.104068        57.2546 
 219   0.0000       2.113538        57.5123 
 220   0.0000       2.141316        58.2682 
 221   0.0000       2.158230        58.7284 
 222   0.0000       2.168291        59.0022 
 223   0.0000       2.187469        59.5241 
 224   0.0000       2.210445        60.1493 
 225   0.0000       2.226669        60.5907 
 226   0.0000       2.243091        61.0376 
 227   0.0000       2.253552        61.3223 
 228   0.0000       2.274546        61.8935 
 229   0.0000       2.290691        62.3329 
 230   0.0000       2.300310        62.5946 
 231   0.0000       2.327987        63.3478 
 232   0.0000       2.337726        63.6128 
 233   0.0000       2.353366        64.0384 
 234   0.0000       2.356467        64.1227 
 235   0.0000       2.364413        64.3390 
 236   0.0000       2.381091        64.7928 
 237   0.0000       2.397709        65.2450 
 238   0.0000       2.413542        65.6758 
 239   0.0000       2.439763        66.3893 
 240   0.0000       2.461324        66.9760 
 241   0.0000       2.481634        67.5287 
 242   0.0000       2.496514        67.9336 
 243   0.0000       2.529455        68.8300 
 244   0.0000       2.572058        69.9892 
 245   0.0000       2.578977        70.1775 
 246   0.0000       2.597124        70.6714 
 247   0.0000       2.614028        71.1313 
 248   0.0000       2.619001        71.2666 
 249   0.0000       2.627841        71.5072 
 250   0.0000       2.652405        72.1756 
 251   0.0000       2.672360        72.7186 
 252   0.0000       2.693255        73.2872 
 253   0.0000       2.699776        73.4646 
 254   0.0000       2.711984        73.7968 
 255   0.0000       2.729546        74.2747 
 256   0.0000       2.756575        75.0102 
 257   0.0000       2.760604        75.1198 
 258   0.0000       2.769885        75.3724 
 259   0.0000       2.784715        75.7759 
 260   0.0000       2.794096        76.0312 
 261   0.0000       2.811307        76.4996 
 262   0.0000       2.820226        76.7422 
 263   0.0000       2.830341        77.0175 
 264   0.0000       2.842870        77.3584 
 265   0.0000       2.855021        77.6891 
 266   0.0000       2.861746        77.8721 
 267   0.0000       2.882075        78.4253 
 268   0.0000       2.893900        78.7470 
 269   0.0000       2.918407        79.4139 
 270   0.0000       2.933218        79.8169 
 271   0.0000       2.964549        80.6695 
 272   0.0000       2.969070        80.7925 
 273   0.0000       2.984296        81.2068 
 274   0.0000       2.995301        81.5063 
 275   0.0000       3.006532        81.8119 
 276   0.0000       3.027428        82.3805 
 277   0.0000       3.038971        82.6946 
 278   0.0000       3.048776        82.9614 
 279   0.0000       3.058157        83.2167 
 280   0.0000       3.088332        84.0378 
 281   0.0000       3.097028        84.2744 
 282   0.0000       3.105721        84.5110 
 283   0.0000       3.129283        85.1521 
 284   0.0000       3.136313        85.3434 
 285   0.0000       3.142199        85.5036 
 286   0.0000       3.157850        85.9295 
 287   0.0000       3.180968        86.5585 
 288   0.0000       3.197774        87.0159 
 289   0.0000       3.208428        87.3058 
 290   0.0000       3.238979        88.1371 
 291   0.0000       3.258113        88.6578 
 292   0.0000       3.272903        89.0602 
 293   0.0000       3.293143        89.6110 
 294   0.0000       3.306086        89.9632 
 295   0.0000       3.311137        90.1006 
 296   0.0000       3.322842        90.4191 
 297   0.0000       3.329168        90.5913 
 298   0.0000       3.338179        90.8365 
 299   0.0000       3.339912        90.8836 
 300   0.0000       3.353596        91.2560 
 301   0.0000       3.377892        91.9171 
 302   0.0000       3.386752        92.1582 
 303   0.0000       3.409432        92.7754 
 304   0.0000       3.410198        92.7962 
 305   0.0000       3.422011        93.1176 
 306   0.0000       3.431214        93.3681 
 307   0.0000       3.446942        93.7961 
 308   0.0000       3.455163        94.0198 
 309   0.0000       3.477446        94.6261 
 310   0.0000       3.485281        94.8393 
 311   0.0000       3.507061        95.4320 
 312   0.0000       3.513348        95.6030 
 313   0.0000       3.545317        96.4730 
 314   0.0000       3.554784        96.7306 
 315   0.0000       3.563549        96.9691 
 316   0.0000       3.574539        97.2681 
 317   0.0000       3.586479        97.5930 
 318   0.0000       3.596291        97.8600 
 319   0.0000       3.611738        98.2804 
 320   0.0000       3.631047        98.8058 
 321   0.0000       3.634948        98.9120 
 322   0.0000       3.653393        99.4139 
 323   0.0000       3.664384        99.7130 
 324   0.0000       3.681426       100.1767 
 325   0.0000       3.688101       100.3583 
 326   0.0000       3.697956       100.6265 
 327   0.0000       3.726687       101.4083 
 328   0.0000       3.740310       101.7790 
 329   0.0000       3.771042       102.6153 
 330   0.0000       3.793308       103.2211 
 331   0.0000       3.811486       103.7158 
 332   0.0000       3.820151       103.9516 
 333   0.0000       3.822169       104.0065 
 334   0.0000       3.825135       104.0872 
 335   0.0000       3.845797       104.6495 
 336   0.0000       3.867925       105.2516 
 337   0.0000       3.886985       105.7702 
 338   0.0000       3.903572       106.2216 
 339   0.0000       3.918861       106.6376 
 340   0.0000       3.948841       107.4534 
 341   0.0000       3.956677       107.6666 
 342   0.0000       3.973427       108.1224 
 343   0.0000       4.005955       109.0076 
 344   0.0000       4.033726       109.7633 
 345   0.0000       4.048473       110.1645 
 346   0.0000       4.074563       110.8745 
 347   0.0000       4.085922       111.1836 
 348   0.0000       4.099404       111.5504 
 349   0.0000       4.122177       112.1702 
 350   0.0000       4.129024       112.3564 
 351   0.0000       4.153496       113.0224 
 352   0.0000       4.179503       113.7301 
 353   0.0000       4.199140       114.2644 
 354   0.0000       4.213408       114.6527 
 355   0.0000       4.256227       115.8178 
 356   0.0000       4.261321       115.9564 
 357   0.0000       4.277820       116.4054 
 358   0.0000       4.307149       117.2035 
 359   0.0000       4.319325       117.5348 
 360   0.0000       4.361047       118.6701 
 361   0.0000       4.375607       119.0663 
 362   0.0000       4.397709       119.6677 
 363   0.0000       4.432028       120.6016 
 364   0.0000       4.454829       121.2220 
 365   0.0000       4.478040       121.8537 
 366   0.0000       4.499619       122.4409 
 367   0.0000       4.537268       123.4653 
 368   0.0000       4.565103       124.2228 
 369   0.0000       4.582578       124.6983 
 370   0.0000       4.638572       126.2220 
 371   0.0000       4.688540       127.5817 
 372   0.0000       4.716173       128.3336 
 373   0.0000       4.733685       128.8101 
 374   0.0000       4.801374       130.6520 
 375   0.0000       4.806595       130.7941 
 376   0.0000       4.857654       132.1835 
 377   0.0000       4.870965       132.5457 
 378   0.0000       4.900507       133.3496 
 379   0.0000       4.920618       133.8968 
 380   0.0000       4.980960       135.5388 
 381   0.0000       4.991438       135.8239 
 382   0.0000       5.007721       136.2670 
 383   0.0000       5.068047       137.9086 
 384   0.0000       5.096889       138.6934 
 385   0.0000       5.110682       139.0687 
 386   0.0000       5.133451       139.6883 
 387   0.0000       5.156219       140.3079 
 388   0.0000       5.193283       141.3164 
 389   0.0000       5.293427       144.0415 
 390   0.0000       5.344109       145.4206 
 391   0.0000       5.369486       146.1112 
 392   0.0000       5.370802       146.1470 
 393   0.0000       5.394720       146.7978 
 394   0.0000       5.404061       147.0520 
 395   0.0000       5.412326       147.2769 
 396   0.0000       5.465259       148.7173 
 397   0.0000       5.509479       149.9206 
 398   0.0000       5.593495       152.2067 
 399   0.0000       5.614991       152.7917 
 400   0.0000       5.653139       153.8297 
 401   0.0000       5.748389       156.4216 
 402   0.0000       5.757636       156.6732 
 403   0.0000       5.775017       157.1462 
 404   0.0000       5.820819       158.3925 
 405   0.0000       5.920911       161.1162 
 406   0.0000       5.921316       161.1272 
 407   0.0000       5.924074       161.2023 
 408   0.0000       5.930701       161.3826 
 409   0.0000       5.981091       162.7538 
 410   0.0000       5.986154       162.8915 
 411   0.0000       5.993917       163.1028 
 412   0.0000       6.066162       165.0687 
 413   0.0000       6.160725       167.6419 
 414   0.0000       6.267256       170.5407 
 415   0.0000       6.337785       172.4599 
 416   0.0000       6.440527       175.2557 
 417   0.0000       6.518437       177.3757 
 418   0.0000       6.546687       178.1444 
 419   0.0000       6.574485       178.9008 
 420   0.0000       6.703282       182.4056 
 421   0.0000       6.823389       185.6739 
 422   0.0000       6.905290       187.9025 
 423   0.0000       6.928874       188.5442 
 424   0.0000       7.019803       191.0186 
 425   0.0000       7.092761       193.0039 
 426   0.0000       7.184480       195.4996 
 427   0.0000       7.249837       197.2781 
 428   0.0000       7.377102       200.7412 
 429   0.0000      22.235062       605.0468 
 430   0.0000      22.334588       607.7550 
 431   0.0000      22.470147       611.4438 
 432   0.0000      22.625149       615.6616 
 433   0.0000      22.683806       617.2578 
 434   0.0000      22.899176       623.1183 
 435   0.0000      22.927606       623.8919 
 436   0.0000      23.413642       637.1176 
 437   0.0000      31.919449       868.5724 
 438   0.0000      43.740383      1190.2363 
 439   0.0000      43.936157      1195.5636 

                 SPIN DOWN ORBITALS
  NO   OCC          E(Eh)            E(eV) 
   0   1.0000    -321.230906     -8741.1373 
   1   1.0000     -38.001776     -1034.0809 
   2   1.0000     -33.292845      -905.9444 
   3   1.0000     -33.292778      -905.9426 
   4   1.0000     -33.292633      -905.9386 
   5   1.0000     -18.411996      -501.0159 
   6   1.0000     -18.410224      -500.9677 
   7   1.0000     -13.788321      -375.1993 
   8   1.0000      -9.703507      -264.0459 
   9   1.0000      -9.671620      -263.1781 
  10   1.0000      -9.646879      -262.5049 
  11   1.0000      -9.644768      -262.4475 
  12   1.0000      -9.628052      -261.9926 
  13   1.0000      -9.620553      -261.7886 
  14   1.0000      -9.606202      -261.3980 
  15   1.0000      -9.602281      -261.2913 
  16   1.0000      -3.830317      -104.2282 
  17   1.0000      -2.367220       -64.4153 
  18   1.0000      -2.364355       -64.3374 
  19   1.0000      -2.363996       -64.3276 
  20   1.0000      -0.620793       -16.8926 
  21   1.0000      -0.614957       -16.7338 
  22   1.0000      -0.589353       -16.0371 
  23   1.0000      -0.497521       -13.5382 
  24   1.0000      -0.445183       -12.1140 
  25   1.0000      -0.383825       -10.4444 
  26   1.0000      -0.361011        -9.8236 
  27   1.0000      -0.319994        -8.7075 
  28   1.0000      -0.254444        -6.9238 
  29   1.0000      -0.253935        -6.9099 
  30   1.0000      -0.230713        -6.2780 
  31   1.0000      -0.191685        -5.2160 
  32   1.0000      -0.179604        -4.8873 
  33   1.0000      -0.166342        -4.5264 
  34   1.0000      -0.144455        -3.9308 
  35   1.0000      -0.130473        -3.5503 
  36   1.0000      -0.110287        -3.0011 
  37   1.0000      -0.097240        -2.6460 
  38   1.0000      -0.082031        -2.2322 
  39   1.0000      -0.077306        -2.1036 
  40   1.0000      -0.069539        -1.8922 
  41   1.0000      -0.066931        -1.8213 
  42   1.0000      -0.043230        -1.1764 
  43   1.0000      -0.035596        -0.9686 
  44   1.0000      -0.002087        -0.0568 
  45   1.0000      -0.000399        -0.0109 
  46   1.0000       0.060507         1.6465 
  47   1.0000       0.062743         1.7073 
  48   1.0000       0.063033         1.7152 
  49   1.0000       0.063485         1.7275 
  50   1.0000       0.069423         1.8891 
  51   1.0000       0.080555         2.1920 
  52   1.0000       0.084430         2.2974 
  53   1.0000       0.110886         3.0174 
  54   1.0000       0.138392         3.7658 
[...]
    9     dE    -1.859778e-08     3.303689e-06                           (NR   MIcro)
    9     dE    -1.860597e-08     2.060208e-06                           (NR   MIcro)
    9     dE    -1.860941e-08     1.564399e-06                           (NR   MIcro)
    9     dE    -1.861081e-08     1.111961e-06                           (NR   MIcro)
    9     dE    -1.861144e-08     7.046527e-07                           (NR   MIcro)
   10      -2155.317297950852     6.695552e-05                           (NR   MAcro)
WARNING : small    HOMO - LUMO gap : (op =  beta) 0.000227
   10     dE    -1.869367e-09     1.861478e-05                           (NR   MIcro)
   10     dE    -2.073983e-09     1.401711e-05                           (NR   MIcro)
   10     dE    -2.465196e-09     2.675252e-05                           (NR   MIcro)
   10     dE    -2.885038e-09     1.161739e-05                           (NR   MIcro)
   10     dE    -2.942218e-09     4.582617e-06                           (NR   MIcro)
   10     dE    -2.950976e-09     2.128382e-06                           (NR   MIcro)
   10     dE    -2.952906e-09     9.279186e-07                           (NR   MIcro)
   11      -2155.317297954073     4.905209e-06                           (NR   MAcro)
WARNING : small    HOMO - LUMO gap : (op =  beta) 0.000172

               *****************************************************
               *                     SUCCESS                       *
               *           SCF CONVERGED AFTER 128 CYCLES          *
               *****************************************************

Total Energy       :        -2155.31729795 Eh          -58649.16534 eV
  Last Energy change         ...   -3.2210e-09  Tolerance :   1.0000e-08
  Last Orbital Gradient      ...    4.9052e-06  Tolerance :   1.0000e-05
  Last Orbital Rotation      ...    2.1511e-03

             **** THE GBW FILE WAS UPDATED (4_2x_deprotonated.gbw) ****
             **** DENSITY 4_2x_deprotonated.scfp WAS UPDATED ****
             **** ENERGY FILE WAS UPDATED (4_2x_deprotonated.en.tmp) ****
----------------------
UHF SPIN CONTAMINATION
----------------------

Warning: in a DFT calculation there is little theoretical justification to 
         calculate <S**2> as in Hartree-Fock theory. We will do it anyways
         but you should keep in mind that the values have only limited relevance

Expectation value of <S**2>     :     0.752380
Ideal value S*(S+1) for S=0.5   :     0.750000
Deviation                       :     0.002380

             **** THE GBW FILE WAS UPDATED (4_2x_deprotonated.gbw) ****
             **** DENSITY 4_2x_deprotonated.scfp WAS UPDATED ****
Total SCF time: 0 days 0 hours 2 min 54 sec 

Maximum memory used throughout the entire SCF-calculation: 58.4 MB


-------------------------------------------------------------------------------
                          DFT DISPERSION CORRECTION                            
                                                                               
                              DFTD3 V3.1  Rev 1                                
                          USING Becke-Johnson damping                          
-------------------------------------------------------------------------------
-------------------------   ----------------
Dispersion correction           -0.021610691
-------------------------   ----------------


-------------------------   --------------------
FINAL SINGLE POINT ENERGY     -2155.338908644862
-------------------------   --------------------



           ************************************************************
           *        Program running with 8 parallel MPI-processes     *
           *              working on a common directory               *
           ************************************************************
------------------------------------------------------------------------------
                         ORCA SCF GRADIENT CALCULATION
------------------------------------------------------------------------------

Gradient of the Kohn-Sham DFT energy:
Kohn-Sham wavefunction type      ... UKS
Hartree-Fock exchange scaling    ...    0.000
Number of operators              ...    2
Number of atoms                  ...   21
Basis set dimensions             ...  440
Integral neglect threshold       ... 2.5e-11
Integral primitive cutoff        ... 2.5e-12
SHARK Integral package           ... ON

Nuc. rep. gradient       (SHARK) ... done (  0.0 sec)
HCore & Overlap gradient (SHARK) ... done (  0.3 sec)
RI-J gradient            (SHARK) ... done (  1.1 sec)
Exchange-correlation gradient    ... done
Dispersion correction            ... done

------------------
CARTESIAN GRADIENT
------------------

   1   O   :   -0.000335752   -0.000781030   -0.000032977
   2   O   :   -0.000754740    0.000724791    0.000174796
   3   N   :   -0.001673599    0.000846888   -0.001685922
   4   C   :   -0.000296068   -0.000536258    0.000492854
   5   C   :    0.000249631    0.000748882   -0.000149361
   6   C   :    0.000540660    0.001805183    0.000783233
   7   C   :   -0.000687265    0.000146770    0.000143948
   8   C   :   -0.001124484    0.000062254   -0.000160570
   9   C   :    0.001769734    0.000957957    0.000381993
  10   C   :    0.000265130   -0.000623982    0.000199014
  11   C   :    0.001523337   -0.000293814   -0.000416656
  12   H   :   -0.000132677   -0.000223706   -0.000129372
  13   H   :    0.000123602    0.000067301   -0.000136823
  14   H   :   -0.000412026   -0.000093415   -0.000101028
  15   H   :    0.000087726   -0.000026935    0.000127421
  16   H   :   -0.000460756   -0.000185971   -0.000190047
  17   H   :    0.000180394   -0.000008960    0.000009839
  18   H   :   -0.000386653   -0.000222518   -0.000045393
  19   H   :    0.000237757   -0.000367218   -0.000542281
  20   H   :    0.002888399   -0.002767342    0.001290105
  21   Cu  :   -0.001602351    0.000771121   -0.000012772

Difference to translation invariance:
           :   -0.0000000006   -0.0000000001    0.0000000001

Difference to rotation invariance:
           :   -0.0001648257    0.0001183015   -0.0000255864

Norm of the cartesian gradient     ...    0.0066998580
RMS gradient                       ...    0.0008441028
MAX gradient                       ...    0.0028883986

-------
TIMINGS
-------

Total SCF gradient time            ...        8.103 sec

One electron gradient       ....       0.284 sec  (  3.5%)
RI-J Coulomb gradient       ....       1.122 sec  ( 13.8%)
XC gradient                 ....       5.834 sec  ( 72.0%)

Maximum memory used throughout the entire SCFGRAD-calculation: 46.7 MB
------------------------------------------------------------------------------
                         ORCA GEOMETRY RELAXATION STEP
------------------------------------------------------------------------------

Reading the OPT-File                    .... done
Getting information on internals        .... done
Copying old internal coords+grads       .... done
Making the new internal coordinates     .... (new redundants).... done
Validating the new internal coordinates .... (new redundants).... done
Calculating the B-matrix                .... done
Calculating the G,G- and P matrices     .... done
Transforming gradient to internals      .... done
Projecting the internal gradient        .... done
Number of atoms                         ....  21
Number of internal coordinates          .... 112
Current Energy                          .... -2155.338908645 Eh
Current gradient norm                   ....     0.006699858 Eh/bohr
Maximum allowed component of the step   ....  0.300
Current trust radius                    ....  0.300
Updating the Hessian (BFGS)             .... done
Forming the augmented Hessian           .... done
Diagonalizing the augmented Hessian     .... done
Last element of RFO vector              ....  0.720788769
Lowest eigenvalues of augmented Hessian:
 -0.001323041  0.000476069  0.001141284  0.002034765  0.005390552
Length of the computed step             ....  0.961661461
Warning: the length of the step is outside the trust region - taking restricted step instead
The input lambda is                     ....    -0.001323
   iter:   1  x=   -0.001927  g= 1382.999918 f(x)=     0.834793
   iter:   2  x=   -0.002704  g=  450.503760 f(x)=     0.350180
   iter:   3  x=   -0.003531  g=  164.195740 f(x)=     0.135855
   iter:   4  x=   -0.004120  g=   74.252453 f(x)=     0.043720
   iter:   5  x=   -0.004309  g=   46.972339 f(x)=     0.008848
   iter:   6  x=   -0.004322  g=   41.135343 f(x)=     0.000566
   iter:   7  x=   -0.004322  g=   40.747904 f(x)=     0.000003
   iter:   8  x=   -0.004322  g=   40.746069 f(x)=     0.000000
   iter:   9  x=   -0.004322  g=   40.746069 f(x)=     0.000000
The output lambda is                    ....    -0.004322 (9 iterations)
The final length of the internal step   ....  0.300000000
Converting the step to cartesian space:
 Initial RMS(Int)=    0.0283473355
Transforming coordinates:
 Iter   0:  RMS(Cart)=    0.0245184652 RMS(Int)=    0.0276571137
 Iter   1:  RMS(Cart)=    0.0006569535 RMS(Int)=    0.0007235597
 Iter   2:  RMS(Cart)=    0.0000125716 RMS(Int)=    0.0000037003
 Iter   3:  RMS(Cart)=    0.0000001771 RMS(Int)=    0.0000001086
 Iter   4:  RMS(Cart)=    0.0000000024 RMS(Int)=    0.0000000014
done
Storing new coordinates                 .... done

                                .--------------------.
          ----------------------|Geometry convergence|-------------------------
          Item                value                   Tolerance       Converged
          ---------------------------------------------------------------------
          Energy change      -0.0004143540            0.0000050000      NO
          RMS gradient        0.0004532232            0.0001000000      NO
          MAX gradient        0.0025483456            0.0003000000      NO
          RMS step            0.0283473355            0.0020000000      NO
          MAX step            0.2083061723            0.0040000000      NO
          ........................................................
          Max(Bonds)      0.1102      Max(Angles)    1.17
          Max(Dihed)        2.02      Max(Improp)    0.00
          ---------------------------------------------------------------------

The optimization has not yet converged - more geometry cycles are needed


    ---------------------------------------------------------------------------
                         Redundant Internal Coordinates
                            (Angstroem and degrees)

        Definition                    Value    dE/dq     Step     New-Value
    ----------------------------------------------------------------------------
     1. B(C   4,C   3)                1.5088 -0.000190  0.0007    1.5095   
     2. B(C   5,N   2)                1.4674  0.001744 -0.0032    1.4641   
     3. B(C   5,C   3)                1.5479  0.000181 -0.0017    1.5462   
     4. B(C   6,C   4)                1.3885 -0.000011 -0.0000    1.3885   
     5. B(C   7,C   4)                1.4250  0.000090 -0.0000    1.4250   
     6. B(C   8,C   6)                1.4459 -0.001429  0.0024    1.4483   
     7. B(C   8,O   0)                1.2622  0.000837 -0.0010    1.2611   
     8. B(C   9,C   7)                1.3823 -0.000675  0.0009    1.3831   
     9. B(C  10,C   9)                1.4436 -0.001069  0.0020    1.4456   
    10. B(C  10,C   8)                1.5179 -0.000283  0.0004    1.5183   
    11. B(C  10,O   1)                1.2640  0.000812 -0.0012    1.2628   
    12. B(H  11,C   3)                1.1065 -0.000278  0.0008    1.1074   
    13. B(H  12,C   3)                1.1030 -0.000074  0.0002    1.1032   
    14. B(H  13,C   5)                1.1024 -0.000430  0.0012    1.1035   
    15. B(H  14,C   5)                1.1041 -0.000100  0.0003    1.1044   
    16. B(H  15,C   6)                1.0960 -0.000023  0.0000    1.0960   
    17. B(H  16,C   7)                1.0967  0.000097 -0.0003    1.0964   
    18. B(H  17,C   9)                1.0957 -0.000033  0.0000    1.0957   
    19. B(H  18,N   2)                1.0253 -0.000090 -0.0001    1.0252   
    20. B(H  19,N   2)                1.0284  0.002548 -0.0022    1.0262   
    21. B(Cu 20,H  19)                5.0226 -0.001864  0.1102    5.1328   
    22. B(Cu 20,N   2)                5.8945  0.000097  0.1071    6.0016   
    23. A(H  18,N   2,H  19)          106.68 -0.000256    0.02    106.70   
    24. A(H  19,N   2,Cu 20)           29.26  0.000113    0.21     29.47   
    25. A(C   5,N   2,Cu 20)          109.82  0.000121   -0.59    109.23   
    26. A(C   5,N   2,H  18)          108.91  0.000311   -0.11    108.80   
    27. A(C   5,N   2,H  19)          109.22  0.000090    0.47    109.69   
    28. A(H  18,N   2,Cu 20)          129.68 -0.000287    1.17    130.85   
    29. A(C   4,C   3,H  11)          109.48 -0.000057    0.09    109.57   
    30. A(C   4,C   3,H  12)          110.40  0.000184   -0.19    110.20   
    31. A(H  11,C   3,H  12)          107.01 -0.000012   -0.08    106.93   
    32. A(C   4,C   3,C   5)          113.42 -0.000100   -0.05    113.37   
    33. A(C   5,C   3,H  11)          108.01  0.000142    0.09    108.10   
    34. A(C   5,C   3,H  12)          108.31 -0.000153    0.14    108.45   
    35. A(C   3,C   4,C   6)          122.05 -0.000520    0.03    122.07   
    36. A(C   6,C   4,C   7)          118.51 -0.000145    0.04    118.54   
    37. A(C   3,C   4,C   7)          119.42  0.000666   -0.06    119.36   
    38. A(H  13,C   5,H  14)          106.90 -0.000088   -0.11    106.80   
    39. A(C   3,C   5,H  14)          108.06  0.000118    0.03    108.09   
    40. A(N   2,C   5,H  14)          108.50  0.000290   -0.11    108.39   
    41. A(C   3,C   5,H  13)          109.63  0.000158    0.07    109.70   
    42. A(N   2,C   5,H  13)          107.41  0.000080    0.05    107.46   
    43. A(N   2,C   5,C   3)          115.98 -0.000531    0.04    116.02   
    44. A(C   4,C   6,C   8)          124.06  0.000022    0.02    124.08   
    45. A(C   8,C   6,H  15)          115.58 -0.000548    0.21    115.79   
    46. A(C   4,C   6,H  15)          120.34  0.000527   -0.22    120.12   
    47. A(C   9,C   7,H  16)          120.16  0.000235   -0.07    120.09   
    48. A(C   4,C   7,H  16)          118.57 -0.000081    0.08    118.65   
    49. A(C   4,C   7,C   9)          121.26 -0.000154   -0.01    121.26   
    50. A(O   0,C   8,C   6)          121.94 -0.000214    0.04    121.98   
    51. A(C   6,C   8,C  10)          116.72  0.000067   -0.04    116.68   
    52. A(O   0,C   8,C  10)          121.34  0.000147    0.01    121.34   
    53. A(C  10,C   9,H  17)          115.71 -0.000507    0.16    115.86   
    54. A(C   7,C   9,H  17)          121.04  0.000417   -0.17    120.87   
    55. A(C   7,C   9,C  10)          123.25  0.000089    0.01    123.26   
    56. A(C   8,C  10,C   9)          116.20  0.000121   -0.02    116.18   
    57. A(O   1,C  10,C   9)          121.88 -0.000826    0.16    122.04   
    58. A(O   1,C  10,C   8)          121.92  0.000702   -0.13    121.79   
    59. A(N   2,H  19,Cu 20)          144.99 -0.000285   -0.20    144.79   
    60. A(N   2,Cu 20,H  19)            5.74  0.000172   -0.00      5.74   
    61. D(C   7,C   4,C   3,H  11)     42.08 -0.000017    0.12     42.19   
    62. D(C   6,C   4,C   3,C   5)     99.72 -0.000048   -0.15     99.57   
    63. D(C   7,C   4,C   3,H  12)    159.63  0.000042   -0.05    159.59   
    64. D(C   6,C   4,C   3,H  12)    -22.02  0.000085   -0.17    -22.19   
    65. D(C   6,C   4,C   3,H  11)   -139.58  0.000026   -0.00   -139.58   
    66. D(C   7,C   4,C   3,C   5)    -78.62 -0.000092   -0.03    -78.66   
    67. D(C   3,C   5,N   2,H  18)     42.51  0.000032    0.17     42.68   
    68. D(H  14,C   5,C   3,H  12)    175.44  0.000023    0.10    175.54   
    69. D(H  14,C   5,N   2,H  18)    -79.27  0.000020    0.18    -79.08   
    70. D(H  13,C   5,N   2,H  19)     49.36  0.000018    0.11     49.46   
    71. D(H  13,C   5,N   2,Cu 20)     18.27 -0.000123    0.01     18.28   
    72. D(H  14,C   5,N   2,H  19)    164.59  0.000103   -0.05    164.54   
    73. D(H  13,C   5,C   3,H  11)     47.17  0.000049    0.05     47.23   
    74. D(H  14,C   5,N   2,Cu 20)    133.50 -0.000037   -0.15    133.36   
    75. D(H  13,C   5,N   2,H  18)    165.50 -0.000065    0.34    165.84   
    76. D(H  13,C   5,C   3,C   4)    168.70  0.000013    0.20    168.91   
    77. D(C   3,C   5,N   2,Cu 20)   -104.72 -0.000026   -0.16   -104.88   
    78. D(N   2,C   5,C   3,H  11)    168.99 -0.000102    0.21    169.20   
    79. D(N   2,C   5,C   3,C   4)    -69.48 -0.000139    0.36    -69.12   
    80. D(H  13,C   5,C   3,H  12)    -68.39  0.000069    0.03    -68.36   
    81. D(H  14,C   5,C   3,C   4)     52.53 -0.000034    0.27     52.80   
    82. D(H  14,C   5,C   3,H  11)    -69.00  0.000003    0.12    -68.88   
    83. D(C   3,C   5,N   2,H  19)    -73.63  0.000115   -0.06    -73.69   
    84. D(N   2,C   5,C   3,H  12)     53.43 -0.000082    0.19     53.61   
    85. D(H  15,C   6,C   4,C   7)   -179.15 -0.000017   -0.11   -179.26   
    86. D(H  15,C   6,C   4,C   3)      2.49 -0.000073    0.01      2.50   
    87. D(C   8,C   6,C   4,C   7)     -0.57  0.000018   -0.10     -0.67   
    88. D(C   8,C   6,C   4,C   3)   -178.93 -0.000038    0.02   -178.91   
    89. D(H  16,C   7,C   4,C   3)     -1.75  0.000004   -0.03     -1.78   
    90. D(C   9,C   7,C   4,C   6)      0.26 -0.000007    0.06      0.32   
    91. D(C   9,C   7,C   4,C   3)    178.67  0.000028   -0.06    178.61   
    92. D(H  16,C   7,C   4,C   6)    179.85 -0.000031    0.09    179.94   
    93. D(C  10,C   8,C   6,H  15)    179.16  0.000070   -0.03    179.13   
    94. D(C  10,C   8,C   6,C   4)      0.51  0.000023   -0.03      0.48   
    95. D(O   0,C   8,C   6,H  15)     -0.30  0.000070   -0.21     -0.51   
    96. D(O   0,C   8,C   6,C   4)   -178.94  0.000023   -0.21   -179.16   
    97. D(H  17,C   9,C   7,H  16)     -0.24 -0.000020    0.10     -0.14   
    98. D(H  17,C   9,C   7,C   4)    179.35 -0.000045    0.13    179.47   
    99. D(C  10,C   9,C   7,H  16)   -179.52 -0.000024    0.09   -179.42   
   100. D(C  10,C   9,C   7,C   4)      0.07 -0.000049    0.12      0.18   
   101. D(C   8,C  10,C   9,H  17)   -179.42  0.000076   -0.25   -179.67   
   102. D(O   1,C  10,C   9,H  17)     -0.26 -0.000115    0.43      0.17   
   103. D(O   1,C  10,C   9,C   7)    179.06 -0.000105    0.44    179.49   
   104. D(C   9,C  10,C   8,C   6)     -0.16 -0.000072    0.19      0.03   
   105. D(C   9,C  10,C   8,O   0)    179.30 -0.000074    0.37    179.67   
   106. D(C   8,C  10,C   9,C   7)     -0.11  0.000086   -0.24     -0.35   
   107. D(O   1,C  10,C   8,C   6)   -179.33  0.000134   -0.49   -179.82   
   108. D(O   1,C  10,C   8,O   0)      0.13  0.000131   -0.31     -0.17   
   109. D(Cu 20,H  19,N   2,H  18)    145.98 -0.000380    1.89    147.87   
   110. D(Cu 20,H  19,N   2,C   5)    -96.45 -0.000107    2.02    -94.43   
   111. D(H  19,Cu 20,N   2,H  18)    -44.13 -0.000389    1.77    -42.36   
   112. D(H  19,Cu 20,N   2,C   5)     94.16 -0.000002    1.80     95.97   
    ----------------------------------------------------------------------------




    ----------------------------------------------------------------------------
                                   ERROR !!!
       The optimization did not converge but reached the maximum 
       number of optimization cycles.
       As a subsequent Frequencies calculation has been requested
       ORCA will abort at this point of the run.
       Please restart the calculation with the lowest energy geometry and/or
       a larger maxiter for the geometry optimization.
    ----------------------------------------------------------------------------


[file orca_main/run.cpp, line 12281]: ORCA finished with error return - aborting the run
