
                                 *****************
                                 * O   R   C   A *
                                 *****************

                                            #,                                       
                                            ###                                      
                                            ####                                     
                                            #####                                    
                                            ######                                   
                                           ########,                                 
                                     ,,################,,,,,                         
                               ,,#################################,,                 
                          ,,##########################################,,             
                       ,#########################################, ''#####,          
                    ,#############################################,,   '####,        
                  ,##################################################,,,,####,       
                ,###########''''           ''''###############################       
              ,#####''   ,,,,##########,,,,          '''####'''          '####       
            ,##' ,,,,###########################,,,                        '##       
           ' ,,###''''                  '''############,,,                           
         ,,##''                                '''############,,,,        ,,,,,,###''
      ,#''                                            '''#######################'''  
     '                                                          ''''####''''         
             ,#######,   #######,   ,#######,      ##                                
            ,#'     '#,  ##    ##  ,#'     '#,    #''#        ######   ,####,        
            ##       ##  ##   ,#'  ##            #'  '#       #        #'  '#        
            ##       ##  #######   ##           ,######,      #####,   #    #        
            '#,     ,#'  ##    ##  '#,     ,#' ,#      #,         ##   #,  ,#        
             '#######'   ##     ##  '#######'  #'      '#     #####' # '####'        



                  #######################################################
                  #                        -***-                        #
                  #          Department of theory and spectroscopy      #
                  #    Directorship and core code : Frank Neese         #
                  #        Max Planck Institute fuer Kohlenforschung    #
                  #                Kaiser Wilhelm Platz 1               #
                  #                 D-45470 Muelheim/Ruhr               #
                  #                      Germany                        #
                  #                                                     #
                  #                  All rights reserved                #
                  #                        -***-                        #
                  #######################################################


                         Program Version 5.0.1 -  RELEASE  -


 With contributions from (in alphabetic order):
   Daniel Aravena         : Magnetic Suceptibility
   Michael Atanasov       : Ab Initio Ligand Field Theory (pilot matlab implementation)
   Alexander A. Auer      : GIAO ZORA, VPT2 properties, NMR spectrum
   Ute Becker             : Parallelization
   Giovanni Bistoni       : ED, misc. LED, open-shell LED, HFLD
   Martin Brehm           : Molecular dynamics
   Dmytro Bykov           : SCF Hessian
   Vijay G. Chilkuri      : MRCI spin determinant printing, contributions to CSF-ICE
   Dipayan Datta          : RHF DLPNO-CCSD density
   Achintya Kumar Dutta   : EOM-CC, STEOM-CC
   Dmitry Ganyushin       : Spin-Orbit,Spin-Spin,Magnetic field MRCI
   Miquel Garcia          : C-PCM and meta-GGA Hessian, CC/C-PCM, Gaussian charge scheme
   Yang Guo               : DLPNO-NEVPT2, F12-NEVPT2, CIM, IAO-localization
   Andreas Hansen         : Spin unrestricted coupled pair/coupled cluster methods
   Benjamin Helmich-Paris : MC-RPA, TRAH-SCF, COSX integrals
   Lee Huntington         : MR-EOM, pCC
   Robert Izsak           : Overlap fitted RIJCOSX, COSX-SCS-MP3, EOM
   Marcus Kettner         : VPT2
   Christian Kollmar      : KDIIS, OOCD, Brueckner-CCSD(T), CCSD density, CASPT2, CASPT2-K
   Simone Kossmann        : Meta GGA functionals, TD-DFT gradient, OOMP2, MP2 Hessian
   Martin Krupicka        : Initial AUTO-CI
   Lucas Lang             : DCDCAS
   Marvin Lechner         : AUTO-CI (C++ implementation), FIC-MRCC
   Dagmar Lenk            : GEPOL surface, SMD
   Dimitrios Liakos       : Extrapolation schemes; Compound Job, initial MDCI parallelization
   Dimitrios Manganas     : Further ROCIS development; embedding schemes
   Dimitrios Pantazis     : SARC Basis sets
   Anastasios Papadopoulos: AUTO-CI, single reference methods and gradients
   Taras Petrenko         : DFT Hessian,TD-DFT gradient, ASA, ECA, R-Raman, ABS, FL, XAS/XES, NRVS
   Peter Pinski           : DLPNO-MP2, DLPNO-MP2 Gradient
   Christoph Reimann      : Effective Core Potentials
   Marius Retegan         : Local ZFS, SOC
   Christoph Riplinger    : Optimizer, TS searches, QM/MM, DLPNO-CCSD(T), (RO)-DLPNO pert. Triples
   Tobias Risthaus        : Range-separated hybrids, TD-DFT gradient, RPA, STAB
   Michael Roemelt        : Original ROCIS implementation
   Masaaki Saitow         : Open-shell DLPNO-CCSD energy and density
   Barbara Sandhoefer     : DKH picture change effects
   Avijit Sen             : IP-ROCIS
   Kantharuban Sivalingam : CASSCF convergence, NEVPT2, FIC-MRCI
   Bernardo de Souza      : ESD, SOC TD-DFT
   Georgi Stoychev        : AutoAux, RI-MP2 NMR, DLPNO-MP2 response
   Willem Van den Heuvel  : Paramagnetic NMR
   Boris Wezisla          : Elementary symmetry handling
   Frank Wennmohs         : Technical directorship


 We gratefully acknowledge several colleagues who have allowed us to
 interface, adapt or use parts of their codes:
   Stefan Grimme, W. Hujo, H. Kruse, P. Pracht,  : VdW corrections, initial TS optimization,
                  C. Bannwarth, S. Ehlert          DFT functionals, gCP, sTDA/sTD-DF
   Ed Valeev, F. Pavosevic, A. Kumar             : LibInt (2-el integral package), F12 methods
   Garnet Chan, S. Sharma, J. Yang, R. Olivares  : DMRG
   Ulf Ekstrom                                   : XCFun DFT Library
   Mihaly Kallay                                 : mrcc  (arbitrary order and MRCC methods)
   Jiri Pittner, Ondrej Demel                    : Mk-CCSD
   Frank Weinhold                                : gennbo (NPA and NBO analysis)
   Christopher J. Cramer and Donald G. Truhlar   : smd solvation model
   Lars Goerigk                                  : TD-DFT with DH, B97 family of functionals
   V. Asgeirsson, H. Jonsson                     : NEB implementation
   FAccTs GmbH                                   : IRC, NEB, NEB-TS, DLPNO-Multilevel, CI-OPT
                                                   MM, QMMM, 2- and 3-layer-ONIOM, Crystal-QMMM,
                                                   LR-CPCM, SF, NACMEs, symmetry and pop. for TD-DFT,
                                                   nearIR, NL-DFT gradient (VV10), updates on ESD,
                                                   ML-optimized integration grids
   S Lehtola, MJT Oliveira, MAL Marques          : LibXC Library
   Liviu Ungur et al                             : ANISO software


 Your calculation uses the libint2 library for the computation of 2-el integrals
 For citations please refer to: http://libint.valeyev.net

 Your ORCA version has been built with support for libXC version: 5.1.0
 For citations please refer to: https://tddft.org/programs/libxc/

 This ORCA versions uses:
   CBLAS   interface :  Fast vector & matrix operations
   LAPACKE interface :  Fast linear algebra routines
   SCALAPACK package :  Parallel linear algebra routines
   Shared memory     :  Shared parallel matrices
   BLAS/LAPACK       :  OpenBLAS 0.3.15  USE64BITINT DYNAMIC_ARCH NO_AFFINITY Haswell SINGLE_THREADED
        Core in use  :  Haswell
   Copyright (c) 2011-2014, The OpenBLAS Project


Your calculation utilizes the atom-pairwise dispersion correction
with the Becke-Johnson damping scheme (D3BJ)
Cite in your paper:
S.Grimme, S.Ehrlich, L.Goerigk, J Comput Chem, (2011), 32, 1456–1465 
S.Grimme, J.Antony, S.Ehrlich and H.Krieg, J.Chem.Phys., 132, (2010), 154104 
   

================================================================================

----- Orbital basis set information -----
Your calculation utilizes the basis: def2-TZVP
   F. Weigend and R. Ahlrichs, Phys. Chem. Chem. Phys. 7, 3297 (2005).

----- AuxJ basis set information -----
Your calculation utilizes the auxiliary basis: def2/J
   F. Weigend, Phys. Chem. Chem. Phys. 8, 1057 (2006).

================================================================================
                                        WARNINGS
                       Please study these warnings very carefully!
================================================================================


WARNING: your system is open-shell and RHF/RKS was chosen
  ===> : WILL SWITCH to UHF/UKS


WARNING: The environment variable RSH_COMMAND is not set!
  ===> : All Displacements for the Numerical Hessian calculation
         will be started on localhost

WARNING: Geometry Optimization
  ===> : Switching off AutoStart
         For restart on a previous wavefunction, please use MOREAD

INFO   : the flag for use of the SHARK integral package has been found!

================================================================================
                                       INPUT FILE
================================================================================
NAME = input.inp
|  1> # ! PBE D3 def2-TZVP opt numfreq
|  2> # %base "1_neutral"
|  3> # %pal nprocs=8 end
|  4> # %geom maxiter=75 end
|  5> # *xyz 0 2 
|  6> #   C   -0.00907341535028     -0.85123534527787     -0.65655865999383
|  7> #   C   -1.01854416407466      1.58526964161995      0.24567637894750
|  8> #   C   -1.30999120820659     -0.78667033981122     -0.15860725969779
|  9> #   C   0.80246125193998      0.29155333315720     -0.71321164322266
| 10> #   C   0.28315902482890      1.50913096482089     -0.25649029461730
| 11> #   C   -1.81388526864604      0.44443205597530      0.29846581001707
| 12> #   O   -3.10897086795093      0.41011913616405      0.76989280955052
| 13> #   O   -2.08129490566624     -1.91119120131562     -0.12018205533912
| 14> #   C   2.23203269901361      0.19346908427337     -1.18380810461992
| 15> #   C   3.22826761905007      0.11061963441511     -0.01465763383019
| 16> #   N   3.01423744035895     -1.05009826059029      0.87844256436549
| 17> #   H   0.35600838130143     -1.81489266808377     -1.01785967607594
| 18> #   H   -1.41965061934979      2.54042645266839      0.59521755224250
| 19> #   H   0.89678504604491      2.41107824492784     -0.29329019618700
| 20> #   H   -3.36289040870137      1.29625280630398      1.07803316989907
| 21> #   H   -2.94290283772848     -1.65950858011034      0.26493723714369
| 22> #   H   2.49285257204265      1.07413456475545     -1.79305753952959
| 23> #   H   2.35804294068994     -0.68954901514270     -1.83093723158554
| 24> #   H   4.26017851645879      0.05846990372036     -0.39046203725310
| 25> #   H   3.15704683005929      1.01635476745088      0.60445904156741
| 26> #   H   3.14377030097198     -1.92280115504418      0.35475266118078
| 27> #   H   2.04095760268418     -1.05579642913665      1.20767686366985
| 28> #   Cu  4.24078347022963     -1.16611759574011      2.52396824336812
| 29> # *
| 30> 
| 31> #	$new_job
| 32> 
| 33> # ! PBE D3 def2-TZVP opt numfreq NOAUTOSTART
| 34> # %base "2_protonated"
| 35> # %pal nprocs=8 end
| 36> # %geom maxiter=75 end
| 37> # *xyz 1 2 
| 38> # C     -1.17699   -1.60635    0.21153
| 39> # C      0.05430    0.76537   -0.59240
| 40> # C     -1.89164   -0.41153    0.24864
| 41> # C      0.15423   -1.62364   -0.21649
| 42> # C      0.78046   -0.44392   -0.62984
| 43> # C     -1.27540    0.79152   -0.16193
| 44> # O     -3.19062   -0.27781    0.64406
| 45> # O     -1.95422    1.96039   -0.15847
| 46> # C      2.24399   -0.42394   -0.99999
| 47> # C      3.11172   -0.24467    0.25146
| 48> # N      2.62510    0.97350    1.01239
| 49> # H      1.57449    0.97651    0.93726
| 50> # H      2.90818    0.96715    2.00041
| 51> # H      2.96307    1.84717    0.58617
| 52> # H     -1.66430   -2.53613    0.51405
| 53> # H      0.47251    1.69247   -0.99593
| 54> # H      0.69338   -2.57192   -0.24701
| 55> # H     -3.58401   -1.14591    0.84219
| 56> # H     -2.87225    1.78236    0.12991
| 57> # H      2.45755    0.37896   -1.72345
| 58> # H      2.55108   -1.36666   -1.47424
| 59> # H      2.99426   -1.09553    0.93406
| 60> # H      4.17647   -0.10042    0.02936
| 61> # Cu     4.50946    1.98603    4.62849
| 62> # *
| 63> 
| 64> # $new_job
| 65> 
| 66> # ! PBE D3 def2-TZVP opt numfreq NOAUTOSTART
| 67> # %base "3_deprotonated"
| 68> # %pal nprocs=8 end
| 69> # %geom maxiter=75 end
| 70> # *xyz -1 2 
| 71> # O      2.37686   -1.81267   -0.06650
| 72> # O      3.24099    0.51520   -0.52449
| 73> # N     -3.03433    0.36663   -1.35028
| 74> # C     -2.18680   -0.14342    0.99469
| 75> # C     -0.73819    0.07497    0.64719
| 76> # C     -3.04282   -0.57094   -0.21837
| 77> # C      0.13672   -1.03264    0.49295
| 78> # C     -0.23298    1.35438    0.38958
| 79> # C      1.44628   -0.82997    0.10049
| 80> # C      1.09821    1.57029   -0.01199
| 81> # C      1.99489    0.48709   -0.17409
| 82> # H     -2.61300    0.78998    1.40780
| 83> # H     -2.29242   -0.91496    1.78198
| 84> # H     -4.09182   -0.72855    0.09266
| 85> # H     -2.67025   -1.54051   -0.58863
| 86> # H     -0.21942   -2.04996    0.68988
| 87> # H     -0.89906    2.21623    0.51616
| 88> # H      1.46559    2.58432   -0.19441
| 89> # H     -2.04631    0.54836   -1.56938
| 90> # H     -3.38020    1.27190   -1.01332
| 91> # H      3.15028   -1.20010   -0.33952
| 92> # Cu    -4.64661   -0.79462   -2.90788
| 93> # *
| 94> 
| 95> # $new_job
| 96> 
| 97> # ! PBE D3 def2-TZVP opt numfreq 
| 98> # %base "4_2x_deprotonated"
| 99> # %pal nprocs=8 end
|100> # %geom maxiter=75 end
|101> # *xyz -2 2
|102> # O     -2.04541   -2.00882   -0.09340
|103> # O     -3.33298    0.49041   -0.60374
|104> # N      2.76830   -0.98650   -1.17658
|105> # C      2.17495    0.33406    0.91521
|106> # C      0.71063    0.37700    0.58365
|107> # C      3.08869    0.17209   -0.32293
|108> # C     -0.03810   -0.82481    0.41109
|109> # C      0.05466    1.59261    0.35530
|110> # C     -1.41523   -0.89879    0.01611
|111> # C     -1.29680    1.60308   -0.05598
|112> # C     -2.10220    0.43189   -0.25169
|113> # H      2.48760    1.26215    1.44138
|114> # H      2.39989   -0.51386    1.60323
|115> # H      4.15855    0.09744   -0.01239
|116> # H      2.99336    1.08212   -0.94138
|117> # H      0.43923   -1.79150    0.64252
|118> # H      0.60669    2.53778    0.47627
|119> # H     -1.80954    2.56280   -0.22347
|120> # H      1.73658   -0.95617   -1.27291
|121> # H      2.89903   -1.82262   -0.59194
|122> # Cu     3.80465   -1.71245   -2.58270
|123> # *
|124> 
|125> # $new_job
|126> 
|127> ! PBE D3 def2-TZVP opt numfreq 
|128> %base "5_zwitterion"
|129> %pal nprocs=8 end
|130> %geom maxiter=75 end
|131> *xyz 0 2
|132> O      2.73505   -2.10741    0.20340
|133> C      1.96090   -1.01083   -0.06068
|134> C      0.67426   -1.11664   -0.55996
|135> C     -0.10629    0.02665   -0.87653
|136> C     -1.59079   -0.09092   -1.04140
|137> C     -2.22313   -0.30878    0.36307
|138> N     -1.51901    0.62288    1.31690
|139> H     -1.30920    0.20045    2.22537
|140> H     -0.57472    0.85780    0.78047
|141> H     -2.03295    1.49672    1.46742
|142> C      0.48330    1.29252   -0.63537
|143> C      1.77356    1.41768   -0.11556
|144> C      2.59717    0.28597    0.24451
|145> O      3.73892    0.36553    0.74988
|146> H      2.24778   -2.89566   -0.09671
|147> H      0.24826   -2.11589   -0.72898
|148> H     -2.01031    0.82093   -1.49692
|149> H     -1.89487   -0.94154   -1.67070
|150> H     -3.30535   -0.12360    0.41208
|151> H     -2.01269   -1.32725    0.70894
|152> H     -0.07431    2.19454   -0.92022
|153> H      2.22018    2.40436    0.02256
|154> Cu    -2.92340    0.63634    4.52517
|155> **                         ****END OF INPUT****
================================================================================

                       *****************************
                       * Geometry Optimization Run *
                       *****************************

Geometry optimization settings:
Update method            Update   .... BFGS
Choice of coordinates    CoordSys .... Z-matrix Internals
Initial Hessian          InHess   .... Almoef's Model

Convergence Tolerances:
Energy Change            TolE     ....  5.0000e-06 Eh
Max. Gradient            TolMAXG  ....  3.0000e-04 Eh/bohr
RMS Gradient             TolRMSG  ....  1.0000e-04 Eh/bohr
Max. Displacement        TolMAXD  ....  4.0000e-03 bohr
RMS Displacement         TolRMSD  ....  2.0000e-03 bohr
Strict Convergence                ....  False
------------------------------------------------------------------------------
                        ORCA OPTIMIZATION COORDINATE SETUP
------------------------------------------------------------------------------

The optimization will be done in new redundant internal coordinates
Making redundant internal coordinates   ...  (new redundants) done
Evaluating the initial hessian          ...  (Almloef) done
Evaluating the coordinates              ...  done
Calculating the B-matrix                .... done
Calculating the G-matrix                .... done
Diagonalizing the G-matrix              .... done
Small eigenvalue found = 7.668e-03
Small eigenvalue found = 2.373e-02
The first mode is                       ....   75
The number of degrees of freedom        ....   63

    -----------------------------------------------------------------
                    Redundant Internal Coordinates


    -----------------------------------------------------------------
         Definition                    Initial Value    Approx d2E/dq
    -----------------------------------------------------------------
      1. B(C   1,O   0)                  1.3680         0.606612   
      2. B(C   2,C   1)                  1.3842         0.638329   
      3. B(C   3,C   2)                  1.4201         0.559462   
      4. B(C   4,C   3)                  1.4982         0.419795   
      5. B(C   5,C   4)                  1.5556         0.340059   
      6. B(N   6,C   5)                  1.5078         0.362975   
      7. B(H   7,N   6)                  1.0236         0.411600   
      8. B(H   8,N   6)                  1.1111         0.298425   
      9. B(H   9,N   6)                  1.0249         0.409684   
     10. B(C  10,C   3)                  1.4171         0.565569   
     11. B(C  11,C  10)                  1.3967         0.609712   
     12. B(C  12,C  11)                  1.4453         0.510022   
     13. B(C  12,C   1)                  1.4764         0.454925   
     14. B(O  13,C  12)                  1.2511         0.932044   
     15. B(H  14,O   0)                  0.9741         0.493741   
     16. B(H  15,C   2)                  1.0993         0.347956   
     17. B(H  16,C   4)                  1.1023         0.344248   
     18. B(H  17,C   4)                  1.1009         0.345933   
     19. B(H  18,C   5)                  1.0990         0.348335   
     20. B(H  19,C   5)                  1.0960         0.352264   
     21. B(H  20,C  10)                  1.0980         0.349610   
     22. B(H  21,C  11)                  1.0918         0.357693   
     23. B(Cu 22,H   9)                  3.2989         0.001090   
     24. B(Cu 22,H   7)                  2.8434         0.005810   
     25. B(Cu 22,N   6)                  3.5022         0.002416   
     26. A(C   1,O   0,H  14)          107.8245         0.365474   
     27. A(O   0,C   1,C   2)          122.3009         0.431793   
     28. A(O   0,C   1,C  12)          114.8531         0.406495   
     29. A(C   2,C   1,C  12)          122.8412         0.412843   
     30. A(C   3,C   2,H  15)          118.9815         0.344848   
     31. A(C   1,C   2,C   3)          121.9917         0.428365   
     32. A(C   1,C   2,H  15)          119.0219         0.352600   
     33. A(C   2,C   3,C  10)          116.9074         0.419195   
     34. A(C   2,C   3,C   4)          120.3956         0.397654   
     35. A(C   4,C   3,C  10)          120.0699         0.398413   
     36. A(C   3,C   4,H  17)          113.4033         0.328429   
     37. A(C   5,C   4,H  16)          109.5276         0.317030   
     38. A(C   3,C   4,H  16)          110.9571         0.328165   
     39. A(H  16,C   4,H  17)          107.3270         0.286986   
     40. A(C   5,C   4,H  17)          107.1933         0.317282   
     41. A(C   3,C   4,C   5)          108.3248         0.364761   
     42. A(N   6,C   5,H  18)          109.1177         0.319130   
     43. A(C   4,C   5,H  18)          114.6414         0.317640   
     44. A(C   4,C   5,H  19)          109.6951         0.318221   
     45. A(C   4,C   5,N   6)          107.1439         0.353636   
     46. A(H  18,C   5,H  19)          109.3642         0.288332   
     47. A(N   6,C   5,H  19)          106.5519         0.319715   
     48. A(C   5,N   6,H   8)          102.8319         0.308625   
     49. A(C   5,N   6,H   7)          113.7127         0.325204   
     50. A(H   8,N   6,H   9)          108.4696         0.283553   
     51. A(H   7,N   6,H   9)          108.9234         0.298240   
     52. A(H   8,N   6,Cu 22)          141.4652         0.170771   
     53. A(C   5,N   6,Cu 22)          113.2415         0.188172   
     54. A(C   5,N   6,H   9)          112.6781         0.324955   
     55. A(H   9,N   6,Cu 22)           70.1900         0.176851   
     56. A(H   7,N   6,H   8)          109.9700         0.283759   
     57. A(H   7,N   6,Cu 22)           43.1769         0.176944   
     58. A(N   6,H   7,Cu 22)          122.5625         0.186859   
     59. A(N   6,H   9,Cu 22)           92.8152         0.155932   
     60. A(C   3,C  10,C  11)          121.8532         0.425686   
     61. A(C  11,C  10,H  20)          119.4767         0.350158   
     62. A(C   3,C  10,H  20)          118.5796         0.345753   
     63. A(C  12,C  11,H  21)          116.2964         0.341116   
     64. A(C  10,C  11,H  21)          120.3954         0.351512   
     65. A(C  10,C  11,C  12)          123.2995         0.417900   
     66. A(C  11,C  12,O  13)          124.8126         0.448080   
     67. A(C   1,C  12,O  13)          122.1845         0.438908   
     68. A(C   1,C  12,C  11)          112.9988         0.396806   
     69. A(H   7,Cu 22,H   9)           30.3505         0.120303   
     70. A(N   6,Cu 22,H   9)           16.9949         0.117132   
     71. A(N   6,Cu 22,H   7)           14.2606         0.130087   
     72. D(C  12,C   1,O   0,H  14)   -175.7161         0.026915   
     73. D(C   2,C   1,O   0,H  14)      5.0546         0.026915   
     74. D(H  15,C   2,C   1,O   0)      1.4722         0.028300   
     75. D(C   3,C   2,C   1,O   0)   -177.7150         0.028300   
     76. D(C   3,C   2,C   1,C  12)      3.1174         0.028300   
     77. D(H  15,C   2,C   1,C  12)   -177.6955         0.028300   
     78. D(C   4,C   3,C   2,C   1)   -162.7491         0.021438   
     79. D(C  10,C   3,C   2,H  15)    179.7071         0.021438   
     80. D(C   4,C   3,C   2,H  15)     18.0634         0.021438   
     81. D(C  10,C   3,C   2,C   1)     -1.1054         0.021438   
     82. D(C   5,C   4,C   3,C  10)    -88.8175         0.013031   
     83. D(H  16,C   4,C   3,C   2)   -167.4941         0.013031   
     84. D(C   5,C   4,C   3,C   2)     72.2469         0.013031   
     85. D(H  16,C   4,C   3,C  10)     31.4415         0.013031   
     86. D(H  17,C   4,C   3,C  10)    152.3241         0.013031   
     87. D(H  17,C   4,C   3,C   2)    -46.6115         0.013031   
     88. D(H  19,C   5,C   4,H  17)     49.4949         0.009363   
     89. D(H  19,C   5,C   4,H  16)    165.6322         0.009363   
     90. D(H  18,C   5,C   4,H  17)    -73.9858         0.009363   
     91. D(H  18,C   5,C   4,H  16)     42.1515         0.009363   
     92. D(H  18,C   5,C   4,C   3)    163.2984         0.009363   
     93. D(H  19,C   5,C   4,C   3)    -73.2209         0.009363   
     94. D(N   6,C   5,C   4,H  17)    164.7772         0.009363   
     95. D(N   6,C   5,C   4,H  16)    -79.0855         0.009363   
     96. D(N   6,C   5,C   4,C   3)     42.0613         0.009363   
     97. D(H   8,N   6,C   5,H  18)   -144.4996         0.012840   
     98. D(H   7,N   6,C   5,H  19)    -21.3334         0.012840   
     99. D(H   7,N   6,C   5,H  18)     96.6435         0.012840   
    100. D(H   7,N   6,C   5,C   4)   -138.6954         0.012840   
    101. D(H   8,N   6,C   5,H  19)     97.5236         0.012840   
    102. D(H   8,N   6,C   5,C   4)    -19.8384         0.012840   
    103. D(Cu 22,N   6,C   5,H  19)    -68.6302         0.012840   
    104. D(Cu 22,N   6,C   5,H  18)     49.3466         0.012840   
    105. D(Cu 22,N   6,C   5,C   4)    174.0077         0.012840   
    106. D(H   9,N   6,C   5,H  19)   -145.9044         0.012840   
    107. D(H   9,N   6,C   5,H  18)    -27.9276         0.012840   
    108. D(H   9,N   6,C   5,C   4)     96.7335         0.012840   
    109. D(Cu 22,H   7,N   6,H   9)     27.2570         0.230577   
    110. D(Cu 22,H   7,N   6,H   8)    146.0015         0.230577   
    111. D(Cu 22,H   7,N   6,C   5)    -99.3091         0.230577   
    112. D(Cu 22,H   9,N   6,H   8)   -139.1363         0.227890   
    113. D(Cu 22,H   9,N   6,H   7)    -19.4563         0.227890   
    114. D(Cu 22,H   9,N   6,C   5)    107.7011         0.227890   
    115. D(H  20,C  10,C   3,C   4)    -21.5302         0.021928   
    116. D(H  20,C  10,C   3,C   2)    176.7632         0.021928   
    117. D(C  11,C  10,C   3,C   4)    161.9487         0.021928   
    118. D(C  11,C  10,C   3,C   2)      0.2422         0.021928   
    119. D(H  21,C  11,C  10,H  20)      0.9889         0.025673   
    120. D(H  21,C  11,C  10,C   3)    177.4796         0.025673   
    121. D(C  12,C  11,C  10,H  20)   -177.8944         0.025673   
    122. D(C  12,C  11,C  10,C   3)     -1.4037         0.025673   
    123. D(O  13,C  12,C  11,C  10)   -177.6910         0.017727   
    124. D(C   1,C  12,C  11,H  21)   -175.8903         0.017727   
    125. D(C   1,C  12,C  11,C  10)      3.0353         0.017727   
    126. D(O  13,C  12,C   1,C   2)    176.8200         0.014102   
    127. D(O  13,C  12,C   1,O   0)     -2.4047         0.014102   
    128. D(C  11,C  12,C   1,C   2)     -3.8846         0.014102   
    129. D(O  13,C  12,C  11,H  21)      3.3834         0.017727   
    130. D(C  11,C  12,C   1,O   0)    176.8907         0.014102   
    131. D(H   9,Cu 22,N   6,C   5)   -106.9357         0.001500   
    132. D(H   7,Cu 22,N   6,H   9)   -152.5819         0.001500   
    133. D(H   7,Cu 22,N   6,H   8)    -57.5213         0.001500   
    134. D(H   7,Cu 22,N   6,C   5)    100.4824         0.001500   
    135. D(H   7,Cu 22,H   9,N   6)     12.9727         0.001500   
    136. D(H   9,Cu 22,H   7,N   6)    -15.4481         0.001501   
    137. D(H   9,Cu 22,N   6,H   8)     95.0606         0.001500   
    138. D(H   9,Cu 22,N   6,H   7)    152.5819         0.001500   
    -----------------------------------------------------------------

Number of atoms                         .... 23
Number of degrees of freedom            .... 138

         *************************************************************
         *                GEOMETRY OPTIMIZATION CYCLE   1            *
         *************************************************************
---------------------------------
CARTESIAN COORDINATES (ANGSTROEM)
---------------------------------
  O      2.735050   -2.107410    0.203400
  C      1.960900   -1.010830   -0.060680
  C      0.674260   -1.116640   -0.559960
  C     -0.106290    0.026650   -0.876530
  C     -1.590790   -0.090920   -1.041400
  C     -2.223130   -0.308780    0.363070
  N     -1.519010    0.622880    1.316900
  H     -1.309200    0.200450    2.225370
  H     -0.574720    0.857800    0.780470
  H     -2.032950    1.496720    1.467420
  C      0.483300    1.292520   -0.635370
  C      1.773560    1.417680   -0.115560
  C      2.597170    0.285970    0.244510
  O      3.738920    0.365530    0.749880
  H      2.247780   -2.895660   -0.096710
  H      0.248260   -2.115890   -0.728980
  H     -2.010310    0.820930   -1.496920
  H     -1.894870   -0.941540   -1.670700
  H     -3.305350   -0.123600    0.412080
  H     -2.012690   -1.327250    0.708940
  H     -0.074310    2.194540   -0.920220
  H      2.220180    2.404360    0.022560
  Cu    -2.923400    0.636340    4.525170

----------------------------
CARTESIAN COORDINATES (A.U.)
----------------------------
  NO LB      ZA    FRAG     MASS         X           Y           Z
   0 O     8.0000    0    15.999    5.168495   -3.982428    0.384370
   1 C     6.0000    0    12.011    3.705564   -1.910192   -0.114669
   2 C     6.0000    0    12.011    1.274167   -2.110144   -1.058171
   3 C     6.0000    0    12.011   -0.200859    0.050361   -1.656402
   4 C     6.0000    0    12.011   -3.006157   -0.171814   -1.967961
   5 C     6.0000    0    12.011   -4.201107   -0.583510    0.686103
   6 N     7.0000    0    14.007   -2.870513    1.177073    2.488580
   7 H     1.0000    0     1.008   -2.474029    0.378796    4.205340
   8 H     1.0000    0     1.008   -1.086063    1.621007    1.474875
   9 H     1.0000    0     1.008   -3.841719    2.828391    2.773022
  10 C     6.0000    0    12.011    0.913305    2.442509   -1.200675
  11 C     6.0000    0    12.011    3.351543    2.679027   -0.218377
  12 C     6.0000    0    12.011    4.907940    0.540405    0.462057
  13 O     8.0000    0    15.999    7.065535    0.690752    1.417068
  14 H     1.0000    0     1.008    4.247689   -5.472004   -0.182755
  15 H     1.0000    0     1.008    0.469143   -3.998453   -1.377573
  16 H     1.0000    0     1.008   -3.798935    1.551333   -2.828769
  17 H     1.0000    0     1.008   -3.580785   -1.779253   -3.157165
  18 H     1.0000    0     1.008   -6.246206   -0.233570    0.778718
  19 H     1.0000    0     1.008   -3.803433   -2.508139    1.339702
  20 H     1.0000    0     1.008   -0.140426    4.147080   -1.738964
  21 H     1.0000    0     1.008    4.195532    4.543582    0.042632
  22 Cu   29.0000    0    63.550   -5.524425    1.202508    8.551332

--------------------------------
INTERNAL COORDINATES (ANGSTROEM)
--------------------------------
 O      0   0   0     0.000000000000     0.00000000     0.00000000
 C      1   0   0     1.368040264502     0.00000000     0.00000000
 C      2   1   0     1.384167173466   122.30090887     0.00000000
 C      3   2   1     1.420065805341   121.99170336   182.28500201
 C      4   3   2     1.498247333320   120.39564043   197.25089517
 C      5   4   3     1.555587617622   108.32484552    72.24688819
 N      6   5   4     1.507835202832   107.14393347    42.06132706
 H      7   6   5     1.023613736670   113.71271496   221.30457077
 H      7   6   5     1.111138225155   102.83194012   340.16155347
 H      7   6   5     1.024883866397   112.67808358    96.73353461
 C      4   3   2     1.417110218226   116.90744024   358.89458032
 C     11   4   3     1.396652544229   121.85320509     0.24216109
 C     12  11   4     1.445251314167   123.29945657   358.59627547
 O     13  12  11     1.251128168095   124.81255133   182.30901669
 H      1   2   3     0.974082197507   107.82445437     5.05457400
 H      3   2   1     1.099338129467   119.02189047     1.47217079
 H      5   4   3     1.102254926639   110.95711639   192.50594787
 H      5   4   3     1.100925756262   113.40331753   313.38847822
 H      6   5   4     1.099042192502   114.64142187   163.29837347
 H      6   5   4     1.095989138359   109.69508025   286.77909602
 H     11   4   3     1.098047592320   118.57960941   176.76322914
 H     12  11   4     1.091825984853   120.39535115   177.47958821
 Cu     8   7   6     2.843364516220   122.56250011   260.69085397

---------------------------
INTERNAL COORDINATES (A.U.)
---------------------------
 O      0   0   0     0.000000000000     0.00000000     0.00000000
 C      1   0   0     2.585221440087     0.00000000     0.00000000
 C      2   1   0     2.615696881414   122.30090887     0.00000000
 C      3   2   1     2.683535464242   121.99170336   182.28500201
 C      4   3   2     2.831277140852   120.39564043   197.25089517
 C      5   4   3     2.939634574625   108.32484552    72.24688819
 N      6   5   4     2.849395588438   107.14393347    42.06132706
 H      7   6   5     1.934349629227   113.71271496   221.30457077
 H      7   6   5     2.099746942474   102.83194012   340.16155347
 H      7   6   5     1.936749826564   112.67808358    96.73353461
 C      4   3   2     2.677950214028   116.90744024   358.89458032
 C     11   4   3     2.639290812836   121.85320509     0.24216109
 C     12  11   4     2.731129178464   123.29945657   358.59627547
 O     13  12  11     2.364289596134   124.81255133   182.30901669
 H      1   2   3     1.840748585216   107.82445437     5.05457400
 H      3   2   1     2.077447993270   119.02189047     1.47217079
 H      5   4   3     2.082959941113   110.95711639   192.50594787
 H      5   4   3     2.080448173114   113.40331753   313.38847822
 H      6   5   4     2.076888753453   114.64142187   163.29837347
 H      6   5   4     2.071119317250   109.69508025   286.77909602
 H     11   4   3     2.075009231497   118.57960941   176.76322914
 H     12  11   4     2.063252097271   120.39535115   177.47958821
 Cu     8   7   6     5.373180234566   122.56250011   260.69085397

---------------------
BASIS SET INFORMATION
---------------------
There are 5 groups of distinct atoms

 Group   1 Type O   : 11s6p2d1f contracted to 5s3p2d1f pattern {62111/411/11/1}
 Group   2 Type C   : 11s6p2d1f contracted to 5s3p2d1f pattern {62111/411/11/1}
 Group   3 Type N   : 11s6p2d1f contracted to 5s3p2d1f pattern {62111/411/11/1}
 Group   4 Type H   : 5s1p contracted to 3s1p pattern {311/1}
 Group   5 Type Cu  : 17s11p7d1f contracted to 6s4p4d1f pattern {842111/6311/4111/1}

Atom   0O    basis set group =>   1
Atom   1C    basis set group =>   2
Atom   2C    basis set group =>   2
Atom   3C    basis set group =>   2
Atom   4C    basis set group =>   2
Atom   5C    basis set group =>   2
Atom   6N    basis set group =>   3
Atom   7H    basis set group =>   4
Atom   8H    basis set group =>   4
Atom   9H    basis set group =>   4
Atom  10C    basis set group =>   2
Atom  11C    basis set group =>   2
Atom  12C    basis set group =>   2
Atom  13O    basis set group =>   1
Atom  14H    basis set group =>   4
Atom  15H    basis set group =>   4
Atom  16H    basis set group =>   4
Atom  17H    basis set group =>   4
Atom  18H    basis set group =>   4
Atom  19H    basis set group =>   4
Atom  20H    basis set group =>   4
Atom  21H    basis set group =>   4
Atom  22Cu   basis set group =>   5
---------------------------------
AUXILIARY/J BASIS SET INFORMATION
---------------------------------
There are 5 groups of distinct atoms

 Group   1 Type O   : 12s5p4d2f1g contracted to 6s4p3d1f1g pattern {711111/2111/211/2/1}
 Group   2 Type C   : 12s5p4d2f1g contracted to 6s4p3d1f1g pattern {711111/2111/211/2/1}
 Group   3 Type N   : 12s5p4d2f1g contracted to 6s4p3d1f1g pattern {711111/2111/211/2/1}
 Group   4 Type H   : 5s2p1d contracted to 3s1p1d pattern {311/2/1}
 Group   5 Type Cu  : 19s5p5d3f3g contracted to 8s5p4d3f3g pattern {121111111/11111/2111/111/111}

Atom   0O    basis set group =>   1
Atom   1C    basis set group =>   2
Atom   2C    basis set group =>   2
Atom   3C    basis set group =>   2
Atom   4C    basis set group =>   2
Atom   5C    basis set group =>   2
Atom   6N    basis set group =>   3
Atom   7H    basis set group =>   4
Atom   8H    basis set group =>   4
Atom   9H    basis set group =>   4
Atom  10C    basis set group =>   2
Atom  11C    basis set group =>   2
Atom  12C    basis set group =>   2
Atom  13O    basis set group =>   1
Atom  14H    basis set group =>   4
Atom  15H    basis set group =>   4
Atom  16H    basis set group =>   4
Atom  17H    basis set group =>   4
Atom  18H    basis set group =>   4
Atom  19H    basis set group =>   4
Atom  20H    basis set group =>   4
Atom  21H    basis set group =>   4
Atom  22Cu   basis set group =>   5


           ************************************************************
           *        Program running with 8 parallel MPI-processes     *
           *              working on a common directory               *
           ************************************************************
------------------------------------------------------------------------------
                           ORCA GTO INTEGRAL CALCULATION
                           -- RI-GTO INTEGRALS CHOSEN --
------------------------------------------------------------------------------
------------------------------------------------------------------------------
                   ___                                                        
                  /   \      - P O W E R E D   B Y -                         
                 /     \                                                     
                 |  |  |   _    _      __       _____    __    __             
                 |  |  |  | |  | |    /  \     |  _  \  |  |  /  |          
                  \  \/   | |  | |   /    \    | | | |  |  | /  /          
                 / \  \   | |__| |  /  /\  \   | |_| |  |  |/  /          
                |  |  |   |  __  | /  /__\  \  |    /   |      \           
                |  |  |   | |  | | |   __   |  |    \   |  |\   \          
                \     /   | |  | | |  |  |  |  | |\  \  |  | \   \       
                 \___/    |_|  |_| |__|  |__|  |_| \__\ |__|  \__/        
                                                                              
                      - O R C A' S   B I G   F R I E N D -                    
                                      &                                       
                       - I N T E G R A L  F E E D E R -                       
                                                                              
 v1 FN, 2020, v2 2021                                                         
------------------------------------------------------------------------------


Reading SHARK input file 5_zwitterion.SHARKINP.tmp ... ok
----------------------
SHARK INTEGRAL PACKAGE
----------------------

Number of atoms                             ...     23
Number of basis functions                   ...    452
Number of shells                            ...    180
Maximum angular momentum                    ...      3
Integral batch strategy                     ... SHARK/LIBINT Hybrid
RI-J (if used) integral strategy            ... SPLIT-RIJ (Revised 2003 algorithm where possible)
Printlevel                                  ...      1
Contraction scheme used                     ... SEGMENTED contraction
Coulomb Range Separation                    ... NOT USED
Exchange Range Separation                   ... NOT USED
Finite Nucleus Model                        ... NOT USED
Auxiliary Coulomb fitting basis             ... AVAILABLE
   # of basis functions in Aux-J            ...    751
   # of shells in Aux-J                     ...    243
   Maximum angular momentum in Aux-J        ...      4
Auxiliary J/K fitting basis                 ... NOT available
Auxiliary Correlation fitting basis         ... NOT available
Auxiliary 'external' fitting basis          ... NOT available
Integral threshold                          ...     2.500000e-11
Primitive cut-off                           ...     2.500000e-12
Primitive pair pre-selection threshold      ...     2.500000e-12

Calculating pre-screening integrals         ... done (  0.1 sec) Dimension = 180
Organizing shell pair data                  ... done (  0.1 sec)
Shell pair information
Total number of shell pairs                 ...     16290
Shell pairs after pre-screening             ...     13332
Total number of primitive shell pairs       ...     52337
Primitive shell pairs kept                  ...     29477
          la=0 lb=0:   3615 shell pairs
          la=1 lb=0:   3766 shell pairs
          la=1 lb=1:   1012 shell pairs
          la=2 lb=0:   1966 shell pairs
          la=2 lb=1:   1036 shell pairs
          la=2 lb=2:    279 shell pairs
          la=3 lb=0:    885 shell pairs
          la=3 lb=1:    468 shell pairs
          la=3 lb=2:    243 shell pairs
          la=3 lb=3:     62 shell pairs

Calculating one electron integrals          ... done (  0.0 sec)
Calculating RI/J V-Matrix + Cholesky decomp.... done (  0.0 sec)
Calculating Nuclear repulsion               ... done (  0.0 sec) ENN=    832.862897616795 Eh

SHARK setup successfully completed in   0.3 seconds

Maximum memory used throughout the entire GTOINT-calculation: 22.8 MB


           ************************************************************
           *        Program running with 8 parallel MPI-processes     *
           *              working on a common directory               *
           ************************************************************
-------------------------------------------------------------------------------
                                 ORCA SCF
-------------------------------------------------------------------------------

------------
SCF SETTINGS
------------
Hamiltonian:
 Density Functional     Method          .... DFT(GTOs)
 Exchange Functional    Exchange        .... PBE
   PBE kappa parameter   XKappa         ....  0.804000
   PBE mue parameter    XMuePBE         ....  0.219520
 Correlation Functional Correlation     .... PBE
   PBE beta parameter  CBetaPBE         ....  0.066725
 LDA part of GGA corr.  LDAOpt          .... PW91-LDA
 Gradients option       PostSCFGGA      .... off
   Density functional embedding theory  .... OFF
   NL short-range parameter             ....  6.400000
 RI-approximation to the Coulomb term is turned on
   Number of AuxJ basis functions       .... 751


General Settings:
 Integral files         IntName         .... 5_zwitterion
 Hartree-Fock type      HFTyp           .... UHF
 Total Charge           Charge          ....    0
 Multiplicity           Mult            ....    2
 Number of Electrons    NEL             ....  111
 Basis Dimension        Dim             ....  452
 Nuclear Repulsion      ENuc            ....    832.8628976168 Eh

Convergence Acceleration:
 DIIS                   CNVDIIS         .... on
   Start iteration      DIISMaxIt       ....    12
   Startup error        DIISStart       ....  0.200000
   # of expansion vecs  DIISMaxEq       ....     5
   Bias factor          DIISBfac        ....   1.050
   Max. coefficient     DIISMaxC        ....  10.000
 Trust-Rad. Augm. Hess. CNVTRAH         .... auto
   Auto Start mean grad. ratio tolernc. ....  1.125000
   Auto Start start iteration           ....    20
   Auto Start num. interpolation iter.  ....    10
   Max. Number of Micro iterations      ....    16
   Max. Number of Macro iterations      .... Maxiter - #DIIS iter
   Number of Davidson start vectors     ....     2
   Converg. threshold I  (grad. norm)   ....   1.000e-05
   Converg. threshold II (energy diff.) ....   1.000e-08
   Grad. Scal. Fac. for Micro threshold ....   0.100
   Minimum threshold for Micro iter.    ....   0.010
   NR start threshold (gradient norm)   ....   0.001
   Initial trust radius                 ....   0.400
   Minimum AH scaling param. (alpha)    ....   1.000
   Maximum AH scaling param. (alpha)    .... 1000.000
   Orbital update algorithm             .... Taylor
   White noise on init. David. guess    .... on
   Maximum white noise                  ....   0.010
   Quad. conv. algorithm                .... NR
 SOSCF                  CNVSOSCF        .... off
 Level Shifting         CNVShift        .... on
   Level shift para.    LevelShift      ....    0.2500
   Turn off err/grad.   ShiftErr        ....    0.0010
 Zerner damping         CNVZerner       .... off
 Static damping         CNVDamp         .... on
   Fraction old density DampFac         ....    0.7000
   Max. Damping (<1)    DampMax         ....    0.9800
   Min. Damping (>=0)   DampMin         ....    0.0000
   Turn off err/grad.   DampErr         ....    0.1000
 Fernandez-Rico         CNVRico         .... off

SCF Procedure:
 Maximum # iterations   MaxIter         ....   125
 SCF integral mode      SCFMode         .... Direct
   Integral package                     .... SHARK and LIBINT hybrid scheme
 Reset frequency        DirectResetFreq ....    20
 Integral Threshold     Thresh          ....  2.500e-11 Eh
 Primitive CutOff       TCut            ....  2.500e-12 Eh

Convergence Tolerance:
 Convergence Check Mode ConvCheckMode   .... Total+1el-Energy
 Convergence forced     ConvForced      .... 0
 Energy Change          TolE            ....  1.000e-08 Eh
 1-El. energy change                    ....  1.000e-05 Eh
 DIIS Error             TolErr          ....  5.000e-07


Diagonalization of the overlap matrix:
Smallest eigenvalue                        ... 1.171e-05
Time for diagonalization                   ...    0.027 sec
Threshold for overlap eigenvalues          ... 1.000e-08
Number of eigenvalues below threshold      ... 0
Time for construction of square roots      ...    0.023 sec
Total time needed                          ...    0.051 sec

Time for model grid setup =    0.129 sec

------------------------------
INITIAL GUESS: MODEL POTENTIAL
------------------------------
Loading Hartree-Fock densities                     ... done
Calculating cut-offs                               ... done
Initializing the effective Hamiltonian             ... done
Setting up the integral package (SHARK)            ... done
Starting the Coulomb interaction                   ... done (   0.1 sec)
Reading the grid                                   ... done
Mapping shells                                     ... done
Starting the XC term evaluation                    ... done (   0.1 sec)
  promolecular density results
     # of electrons  =    110.995011933
     EX              =   -132.453909929
     EC              =     -4.082868358
     EX+EC           =   -136.536778287
Transforming the Hamiltonian                       ... done (   0.0 sec)
Diagonalizing the Hamiltonian                      ... done (   0.0 sec)
Back transforming the eigenvectors                 ... done (   0.0 sec)
Now organizing SCF variables                       ... done
                      ------------------
                      INITIAL GUESS DONE (   0.5 sec)
                      ------------------
-------------------
DFT GRID GENERATION
-------------------

General Integration Accuracy     IntAcc      ... 4.388
Radial Grid Type                 RadialGrid  ... OptM3 with GC (2021)
Angular Grid (max. ang.)         AngularGrid ... 4 (Lebedev-302)
Angular grid pruning method      GridPruning ... 4 (adaptive)
Weight generation scheme         WeightScheme... Becke
Basis function cutoff            BFCut       ... 1.0000e-11
Integration weight cutoff        WCut        ... 1.0000e-14
Angular grids for H and He will be reduced by one unit
Partially contracted basis set               ... off
Rotationally invariant grid construction     ... off

Total number of grid points                  ...   112229
Total number of batches                      ...     1765
Average number of points per batch           ...       63
Average number of grid points per atom       ...     4880
Time for grid setup =    0.595 sec

--------------
SCF ITERATIONS
--------------
ITER       Energy         Delta-E        Max-DP      RMS-DP      [F,P]     Damp
               ***  Starting incremental Fock matrix formation  ***
  0  -2156.0033771327   0.000000000000 0.62937159  0.00330632  0.3239501 0.7000
  1  -2156.2309148421  -0.227537709450 0.11726586  0.00091347  0.0717571 0.7000
                               ***Turning on DIIS***
  2  -2156.2617482831  -0.030833440954 0.48503993  0.00254482  0.0835215 0.0000
  3  -2156.2878344572  -0.026086174170 0.17388105  0.00120060  0.0700877 0.0000
  4  -2156.3367185000  -0.048884042757 0.05338024  0.00038830  0.0642206 0.0000
  5  -2156.3495402239  -0.012821723917 0.06597344  0.00051122  0.0433284 0.0000
  6  -2156.3737400511  -0.024199827149 0.09686568  0.00063596  0.0370359 0.0000
  7  -2156.3889213895  -0.015181338447 0.07876545  0.00051423  0.0911577 0.0000
  8  -2156.3544819913   0.034439398221 0.01150459  0.00009967  0.1456500 0.7000
  9  -2156.3456757591   0.008806232153 0.01406025  0.00013083  0.1544117 0.7000
 10  -2156.3339180409   0.011757718275 0.01450727  0.00013061  0.1661546 0.7000
 11  -2156.3271730825   0.006744958354 0.01291373  0.00012345  0.1742000 0.7000
 12  -2156.3243436945   0.002829387952 0.09481829  0.00055912  0.1748690 0.7000
 13  -2156.3546410678  -0.030297373247 0.17025348  0.00103365  0.1134259 0.7000
 14  -2156.3843956849  -0.029754617148 0.27698436  0.00186863  0.0416732 0.0000
 15  -2156.4162565992  -0.031860914291 0.14429594  0.00073544  0.0458981 0.0000
 16  -2156.4211527505  -0.004896151256 0.08956270  0.00050730  0.0490195 0.0000
 17  -2156.4244478240  -0.003295073483 0.05393195  0.00033636  0.0291191 0.0000
 18  -2156.4273115926  -0.002863768656 0.01539252  0.00011994  0.0100934 0.0000
 19  -2156.4277752490  -0.000463656415 0.02571082  0.00015609  0.0171989 0.0000
               *** Restarting incremental Fock matrix formation ***
                                   *** Resetting DIIS ***
 20  -2156.4287109352  -0.000935686119 0.01682853  0.00011989  0.0058831 0.0000
 21  -2156.4287935974  -0.000082662197 0.00514127  0.00004296  0.0152036 0.0000
 22  -2156.4292982031  -0.000504605787 0.00602442  0.00004021  0.0026707 0.0000
 23  -2156.4295905249  -0.000292321769 0.00560811  0.00004010  0.0018487 0.0000
 24  -2156.4298639564  -0.000273431478 0.00555937  0.00003986  0.0018305 0.0000
 25  -2156.4301127726  -0.000248816205 0.00603526  0.00004143  0.0031779 0.0000
 26  -2156.4303808230  -0.000268050397 0.00595301  0.00004054  0.0040130 0.0000
 27  -2156.4306226922  -0.000241869201 0.00597155  0.00003996  0.0050186 0.0000

 WARNING: the maximum gradient error descreased on average only by a factor   1.1
          during the last 20 iterations

                      *** Initiating the TRAH-SCF procedure ***


TRAH GRID
---------

General Integration Accuracy     IntAcc      ... 3.467
Radial Grid Type                 RadialGrid  ... OptM3 with GC (2021)
Angular Grid (max. ang.)         AngularGrid ... 1 (Lebedev-50)
Angular grid pruning method      GridPruning ... 4 (adaptive)
Weight generation scheme         WeightScheme... Becke
Basis function cutoff            BFCut       ... 1.0000e-11
Integration weight cutoff        WCut        ... 1.0000e-14
Angular grids for H and He will be reduced by one unit
Partially contracted basis set               ... off
Rotationally invariant grid construction     ... off

Total number of grid points                  ...    18831
Total number of batches                      ...      304
Average number of points per batch           ...       61
Average number of grid points per atom       ...      819

 --------------------------------------------------------------------------------------------
   Iter.        energy            ||Error||_2        Shift      TRadius  Mac/Mic        Rej.
 --------------------------------------------------------------------------------------------
WARNING: 1 diagonal Hessian elements are negative!
    0      -2156.430849198679     1.730817e-02                     0.400 (TRAH MAcro)   No
WARNING : negative HOMO - LUMO gap : (op =  beta) -0.000463
    0     dE    -9.991422e-05     2.120279e-02    -9.9911e-05      0.006 (TRAH MIcro)
    0     dE    -2.592439e-04     3.096760e-02    -2.5882e-04      0.041 (TRAH MIcro)
    0     dE    -4.628442e-04     2.304462e-02    -4.6053e-04      0.071 (TRAH MIcro)
    0     dE    -5.625980e-04     2.292032e-02    -5.5774e-04      0.093 (TRAH MIcro)
    0     dE    -7.856374e-04     2.598852e-02    -7.7177e-04      0.134 (TRAH MIcro)
    0     dE    -1.138317e-03     2.950119e-02    -1.0983e-03      0.191 (TRAH MIcro)
    0     dE    -2.680126e-03     3.821866e-02    -2.3289e-03      0.388 (TRAH MIcro)
    0     dE    -3.523850e-03     1.704320e-02    -7.1807e-03      0.400 (TRAH MIcro)
    0     dE    -3.661726e-03     7.370484e-03    -8.0424e-03      0.400 (TRAH MIcro)
    0     dE    -3.688860e-03     3.161269e-03    -8.1896e-03      0.400 (TRAH MIcro)
    0     dE    -3.693797e-03     1.560448e-03    -8.2200e-03      0.400 (TRAH MIcro)
WARNING: 2 diagonal Hessian elements are negative!
    1      -2156.431227781527     4.973267e-02                     0.280 (TRAH MAcro)   No
WARNING : negative HOMO - LUMO gap : (op =  beta) -0.000854
    1     dE    -8.868011e-04     5.909060e-02    -8.8652e-04      0.018 (TRAH MIcro)
    1     dE    -2.072501e-03     2.848093e-02    -2.0462e-03      0.113 (TRAH MIcro)
    1     dE    -2.236198e-03     1.388002e-02    -2.2112e-03      0.106 (TRAH MIcro)
    1     dE    -2.275849e-03     6.170244e-03    -2.2505e-03      0.106 (TRAH MIcro)
    1     dE    -2.294702e-03     2.300818e-03    -2.2716e-03      0.101 (TRAH MIcro)
    2      -2156.433504226683     3.398781e-03                     0.336 (TRAH MAcro)   No
WARNING : small    HOMO - LUMO gap : (op =  beta) 0.004813
    2     dE    -1.950106e-06     7.046022e-03    -1.9501e-06      0.001 (TRAH MIcro)
    2     dE    -1.318376e-05     7.184290e-03    -1.3183e-05      0.010 (TRAH MIcro)
    2     dE    -8.281091e-05     9.420895e-03    -8.2591e-05      0.052 (TRAH MIcro)
    2     dE    -9.468299e-05     2.901283e-03    -9.4340e-05      0.060 (TRAH MIcro)
    2     dE    -9.753292e-05     1.708925e-03    -9.7152e-05      0.063 (TRAH MIcro)
    2     dE    -9.816898e-05     5.432532e-04    -9.7783e-05      0.063 (TRAH MIcro)
    2     dE    -9.829855e-05     2.188571e-04    -9.7910e-05      0.063 (TRAH MIcro)
    3      -2156.433604039386     1.652671e-03                     0.403 (TRAH MAcro)   No
WARNING : small    HOMO - LUMO gap : (op =  beta) 0.004719
    3     dE    -4.137318e-07     1.115580e-03    -4.1373e-07      0.000 (TRAH MIcro)
    3     dE    -5.385066e-07     9.603115e-04    -5.3851e-07      0.001 (TRAH MIcro)
    3     dE    -8.433755e-07     3.397932e-04    -8.4337e-07      0.001 (TRAH MIcro)
    3     dE    -9.201523e-07     2.052484e-04    -9.2015e-07      0.002 (TRAH MIcro)
    3     dE    -9.497095e-07     9.757576e-05    -9.4970e-07      0.003 (TRAH MIcro)
    4      -2156.433604992994     9.765543e-05                           (NR   MAcro)
WARNING : small    HOMO - LUMO gap : (op =  beta) 0.004651
    4     dE    -2.857075e-09     6.098961e-05                           (NR   MIcro)
    4     dE    -3.973238e-09     5.426800e-05                           (NR   MIcro)
    4     dE    -5.558059e-09     2.411927e-05                           (NR   MIcro)
    4     dE    -5.941662e-09     1.316905e-05                           (NR   MIcro)
    4     dE    -6.044512e-09     9.557707e-06                           (NR   MIcro)
    4     dE    -6.066215e-09     2.757119e-06                           (NR   MIcro)
    4     dE    -6.069229e-09     1.026659e-06                           (NR   MIcro)
    4     dE    -6.069618e-09     5.362438e-07                           (NR   MIcro)
    5      -2156.433604999077     5.955069e-07                           (NR   MAcro)
WARNING : small    HOMO - LUMO gap : (op =  beta) 0.004651

               *****************************************************
               *                     SUCCESS                       *
               *           SCF CONVERGED AFTER  70 CYCLES          *
               *****************************************************


----------------
TOTAL SCF ENERGY
----------------

Total Energy       :        -2156.43360500 Eh          -58679.54160 eV

Components:
Nuclear Repulsion  :          832.86289762 Eh           22663.35163 eV
Electronic Energy  :        -2989.29650262 Eh          -81342.89323 eV
One Electron Energy:        -4643.37063783 Eh         -126352.53869 eV
Two Electron Energy:         1654.07413522 Eh           45009.64547 eV

Virial components:
Potential Energy   :        -4308.12167729 Eh         -117229.95069 eV
Kinetic Energy     :         2151.68807229 Eh           58550.40909 eV
Virial Ratio       :            2.00220549


DFT components:
N(Alpha)           :       56.000028234792 electrons
N(Beta)            :       55.000042152540 electrons
N(Total)           :      111.000070387332 electrons
E(X)               :     -133.776888309809 Eh       
E(C)               :       -4.089187218016 Eh       
E(XC)              :     -137.866075527825 Eh       
DFET-embed. en.    :        0.000000000000 Eh       

---------------
SCF CONVERGENCE
---------------

  Last Energy change         ...   -6.0822e-09  Tolerance :   1.0000e-08
  Last Orbital Gradient      ...    5.9551e-07  Tolerance :   1.0000e-05
  Last Orbital Rotation      ...    2.5447e-04

             **** THE GBW FILE WAS UPDATED (5_zwitterion.gbw) ****
             **** DENSITY 5_zwitterion.scfp WAS UPDATED ****
             **** ENERGY FILE WAS UPDATED (5_zwitterion.en.tmp) ****
----------------------
UHF SPIN CONTAMINATION
----------------------

Warning: in a DFT calculation there is little theoretical justification to 
         calculate <S**2> as in Hartree-Fock theory. We will do it anyways
         but you should keep in mind that the values have only limited relevance

Expectation value of <S**2>     :     0.752818
Ideal value S*(S+1) for S=0.5   :     0.750000
Deviation                       :     0.002818

             **** THE GBW FILE WAS UPDATED (5_zwitterion.gbw) ****
             **** DENSITY 5_zwitterion.scfp WAS UPDATED ****
----------------
ORBITAL ENERGIES
----------------
                 SPIN UP ORBITALS
  NO   OCC          E(Eh)            E(eV) 
   0   1.0000    -321.475112     -8747.7825 
   1   1.0000     -38.238511     -1040.5228 
   2   1.0000     -33.529872      -912.3942 
   3   1.0000     -33.529800      -912.3922 
   4   1.0000     -33.529747      -912.3908 
   5   1.0000     -18.786133      -511.1967 
   6   1.0000     -18.683657      -508.4081 
   7   1.0000     -14.117565      -384.1585 
   8   1.0000      -9.982368      -271.6340 
   9   1.0000      -9.944850      -270.6131 
  10   1.0000      -9.932910      -270.2882 
  11   1.0000      -9.924321      -270.0545 
  12   1.0000      -9.912006      -269.7194 
  13   1.0000      -9.900116      -269.3958 
  14   1.0000      -9.896374      -269.2940 
  15   1.0000      -9.878420      -268.8055 
  16   1.0000      -4.069386      -110.7336 
  17   1.0000      -2.606218       -70.9188 
  18   1.0000      -2.604441       -70.8705 
  19   1.0000      -2.604318       -70.8671 
  20   1.0000      -0.976529       -26.5727 
  21   1.0000      -0.940147       -25.5827 
  22   1.0000      -0.890045       -24.2193 
  23   1.0000      -0.788337       -21.4517 
  24   1.0000      -0.733914       -19.9708 
  25   1.0000      -0.677395       -18.4329 
  26   1.0000      -0.661577       -18.0024 
  27   1.0000      -0.602623       -16.3982 
  28   1.0000      -0.571339       -15.5469 
  29   1.0000      -0.561156       -15.2698 
  30   1.0000      -0.543410       -14.7869 
  31   1.0000      -0.523726       -14.2513 
  32   1.0000      -0.491176       -13.3656 
  33   1.0000      -0.476129       -12.9561 
  34   1.0000      -0.433876       -11.8064 
  35   1.0000      -0.432020       -11.7559 
  36   1.0000      -0.417010       -11.3474 
  37   1.0000      -0.392817       -10.6891 
  38   1.0000      -0.382971       -10.4212 
  39   1.0000      -0.372273       -10.1300 
  40   1.0000      -0.364416        -9.9163 
  41   1.0000      -0.360234        -9.8025 
  42   1.0000      -0.336596        -9.1592 
  43   1.0000      -0.320284        -8.7154 
  44   1.0000      -0.310719        -8.4551 
  45   1.0000      -0.304424        -8.2838 
  46   1.0000      -0.285616        -7.7720 
  47   1.0000      -0.222653        -6.0587 
  48   1.0000      -0.184601        -5.0232 
  49   1.0000      -0.183730        -4.9996 
  50   1.0000      -0.183519        -4.9938 
  51   1.0000      -0.182320        -4.9612 
  52   1.0000      -0.182303        -4.9607 
  53   1.0000      -0.173482        -4.7207 
  54   1.0000      -0.171917        -4.6781 
  55   1.0000      -0.163408        -4.4466 
  56   0.0000      -0.053195        -1.4475 
  57   0.0000      -0.047304        -1.2872 
  58   0.0000      -0.035452        -0.9647 
  59   0.0000      -0.022078        -0.6008 
  60   0.0000      -0.008965        -0.2439 
  61   0.0000       0.003147         0.0856 
  62   0.0000       0.012874         0.3503 
  63   0.0000       0.026568         0.7229 
  64   0.0000       0.030736         0.8364 
  65   0.0000       0.034941         0.9508 
  66   0.0000       0.049888         1.3575 
  67   0.0000       0.055637         1.5140 
  68   0.0000       0.063678         1.7328 
  69   0.0000       0.067198         1.8286 
  70   0.0000       0.073174         1.9912 
  71   0.0000       0.083239         2.2650 
  72   0.0000       0.088410         2.4058 
  73   0.0000       0.105423         2.8687 
  74   0.0000       0.108480         2.9519 
  75   0.0000       0.112969         3.0740 
  76   0.0000       0.120040         3.2665 
  77   0.0000       0.122547         3.3347 
  78   0.0000       0.141810         3.8589 
  79   0.0000       0.148432         4.0390 
  80   0.0000       0.159596         4.3428 
  81   0.0000       0.162394         4.4190 
  82   0.0000       0.168909         4.5962 
  83   0.0000       0.172973         4.7068 
  84   0.0000       0.183066         4.9815 
  85   0.0000       0.185481         5.0472 
  86   0.0000       0.192737         5.2447 
  87   0.0000       0.201616         5.4863 
  88   0.0000       0.207834         5.6554 
  89   0.0000       0.214427         5.8349 
  90   0.0000       0.225862         6.1460 
  91   0.0000       0.228234         6.2106 
  92   0.0000       0.236102         6.4247 
  93   0.0000       0.242972         6.6116 
  94   0.0000       0.250898         6.8273 
  95   0.0000       0.261351         7.1117 
  96   0.0000       0.273724         7.4484 
  97   0.0000       0.287961         7.8358 
  98   0.0000       0.294951         8.0260 
  99   0.0000       0.302320         8.2265 
 100   0.0000       0.309363         8.4182 
 101   0.0000       0.311647         8.4803 
 102   0.0000       0.323118         8.7925 
 103   0.0000       0.333828         9.0839 
 104   0.0000       0.337380         9.1806 
 105   0.0000       0.345773         9.4090 
 106   0.0000       0.354575         9.6485 
 107   0.0000       0.358425         9.7533 
 108   0.0000       0.362326         9.8594 
 109   0.0000       0.365833         9.9548 
 110   0.0000       0.372965        10.1489 
 111   0.0000       0.381908        10.3922 
 112   0.0000       0.384492        10.4625 
 113   0.0000       0.391662        10.6577 
 114   0.0000       0.395106        10.7514 
 115   0.0000       0.408373        11.1124 
 116   0.0000       0.412559        11.2263 
 117   0.0000       0.420288        11.4366 
 118   0.0000       0.430153        11.7051 
 119   0.0000       0.434775        11.8308 
 120   0.0000       0.444487        12.0951 
 121   0.0000       0.461365        12.5544 
 122   0.0000       0.479499        13.0478 
 123   0.0000       0.485891        13.2218 
 124   0.0000       0.493157        13.4195 
 125   0.0000       0.504857        13.7379 
 126   0.0000       0.515752        14.0343 
 127   0.0000       0.528159        14.3719 
 128   0.0000       0.530054        14.4235 
 129   0.0000       0.544847        14.8260 
 130   0.0000       0.554370        15.0852 
 131   0.0000       0.556895        15.1539 
 132   0.0000       0.578171        15.7328 
 133   0.0000       0.587126        15.9765 
 134   0.0000       0.595676        16.2092 
 135   0.0000       0.608926        16.5697 
 136   0.0000       0.632091        17.2001 
 137   0.0000       0.637113        17.3367 
 138   0.0000       0.651715        17.7341 
 139   0.0000       0.680771        18.5247 
 140   0.0000       0.694004        18.8848 
 141   0.0000       0.711778        19.3685 
 142   0.0000       0.718367        19.5478 
 143   0.0000       0.736769        20.0485 
 144   0.0000       0.753047        20.4915 
 145   0.0000       0.765776        20.8378 
 146   0.0000       0.774419        21.0730 
 147   0.0000       0.791663        21.5422 
 148   0.0000       0.798335        21.7238 
 149   0.0000       0.800930        21.7944 
 150   0.0000       0.804209        21.8836 
 151   0.0000       0.827263        22.5110 
 152   0.0000       0.836988        22.7756 
 153   0.0000       0.847295        23.0561 
 154   0.0000       0.849335        23.1116 
 155   0.0000       0.852405        23.1951 
 156   0.0000       0.854601        23.2549 
 157   0.0000       0.858704        23.3665 
 158   0.0000       0.865997        23.5650 
 159   0.0000       0.878634        23.9088 
 160   0.0000       0.884756        24.0754 
 161   0.0000       0.900526        24.5045 
 162   0.0000       0.917704        24.9720 
 163   0.0000       0.932129        25.3645 
 164   0.0000       0.977396        26.5963 
 165   0.0000       0.982765        26.7424 
 166   0.0000       0.995118        27.0785 
 167   0.0000       1.005948        27.3732 
 168   0.0000       1.014587        27.6083 
 169   0.0000       1.024276        27.8720 
 170   0.0000       1.044699        28.4277 
 171   0.0000       1.061515        28.8853 
 172   0.0000       1.076927        29.3047 
 173   0.0000       1.080104        29.3911 
 174   0.0000       1.085735        29.5443 
 175   0.0000       1.116493        30.3813 
 176   0.0000       1.139293        31.0018 
 177   0.0000       1.161374        31.6026 
 178   0.0000       1.178578        32.0707 
 179   0.0000       1.181751        32.1571 
 180   0.0000       1.195431        32.5293 
 181   0.0000       1.208471        32.8842 
 182   0.0000       1.226313        33.3697 
 183   0.0000       1.240159        33.7464 
 184   0.0000       1.262808        34.3628 
 185   0.0000       1.267437        34.4887 
 186   0.0000       1.288605        35.0647 
 187   0.0000       1.296194        35.2712 
 188   0.0000       1.310248        35.6537 
 189   0.0000       1.321096        35.9489 
 190   0.0000       1.339644        36.4536 
 191   0.0000       1.358955        36.9791 
 192   0.0000       1.384834        37.6832 
 193   0.0000       1.391660        37.8690 
 194   0.0000       1.412276        38.4300 
 195   0.0000       1.426825        38.8259 
 196   0.0000       1.433690        39.0127 
 197   0.0000       1.451012        39.4840 
 198   0.0000       1.472196        40.0605 
 199   0.0000       1.478124        40.2218 
 200   0.0000       1.484467        40.3944 
 201   0.0000       1.502202        40.8770 
 202   0.0000       1.521345        41.3979 
 203   0.0000       1.526170        41.5292 
 204   0.0000       1.542224        41.9660 
 205   0.0000       1.559402        42.4335 
 206   0.0000       1.573121        42.8068 
 207   0.0000       1.583204        43.0812 
 208   0.0000       1.603752        43.6403 
 209   0.0000       1.628116        44.3033 
 210   0.0000       1.631556        44.3969 
 211   0.0000       1.637904        44.5696 
 212   0.0000       1.651109        44.9290 
 213   0.0000       1.661796        45.2198 
 214   0.0000       1.689906        45.9847 
 215   0.0000       1.701956        46.3126 
 216   0.0000       1.719887        46.8005 
 217   0.0000       1.726176        46.9716 
 218   0.0000       1.750753        47.6404 
 219   0.0000       1.772167        48.2231 
 220   0.0000       1.774998        48.3001 
 221   0.0000       1.787326        48.6356 
 222   0.0000       1.806843        49.1667 
 223   0.0000       1.815910        49.4134 
 224   0.0000       1.817266        49.4503 
 225   0.0000       1.834290        49.9136 
 226   0.0000       1.840242        50.0755 
 227   0.0000       1.852144        50.3994 
 228   0.0000       1.869265        50.8653 
 229   0.0000       1.903550        51.7982 
 230   0.0000       1.921850        52.2962 
 231   0.0000       1.946927        52.9786 
 232   0.0000       1.949446        53.0471 
 233   0.0000       1.965309        53.4788 
 234   0.0000       1.977569        53.8124 
 235   0.0000       2.004255        54.5386 
 236   0.0000       2.020133        54.9706 
 237   0.0000       2.030979        55.2658 
 238   0.0000       2.042400        55.5765 
 239   0.0000       2.058308        56.0094 
 240   0.0000       2.083820        56.7036 
 241   0.0000       2.094830        57.0032 
 242   0.0000       2.101776        57.1922 
 243   0.0000       2.105436        57.2918 
 244   0.0000       2.118416        57.6450 
 245   0.0000       2.151681        58.5502 
 246   0.0000       2.171115        59.0791 
 247   0.0000       2.180385        59.3313 
 248   0.0000       2.204280        59.9815 
 249   0.0000       2.204594        59.9900 
 250   0.0000       2.230679        60.6999 
 251   0.0000       2.235607        60.8340 
 252   0.0000       2.263150        61.5834 
 253   0.0000       2.266709        61.6803 
 254   0.0000       2.282448        62.1086 
 255   0.0000       2.337370        63.6031 
 256   0.0000       2.344783        63.8048 
 257   0.0000       2.375715        64.6465 
 258   0.0000       2.381195        64.7956 
 259   0.0000       2.386910        64.9511 
 260   0.0000       2.399788        65.3015 
 261   0.0000       2.427616        66.0588 
 262   0.0000       2.442597        66.4664 
 263   0.0000       2.458299        66.8937 
 264   0.0000       2.466668        67.1214 
 265   0.0000       2.475730        67.3680 
 266   0.0000       2.480377        67.4945 
 267   0.0000       2.488731        67.7218 
 268   0.0000       2.513422        68.3937 
 269   0.0000       2.522632        68.6443 
 270   0.0000       2.537250        69.0421 
 271   0.0000       2.549463        69.3744 
 272   0.0000       2.561783        69.7097 
 273   0.0000       2.567039        69.8527 
 274   0.0000       2.580787        70.2268 
 275   0.0000       2.590119        70.4807 
 276   0.0000       2.611793        71.0705 
 277   0.0000       2.630684        71.5845 
 278   0.0000       2.635739        71.7221 
 279   0.0000       2.660588        72.3983 
 280   0.0000       2.669328        72.6361 
 281   0.0000       2.688096        73.1468 
 282   0.0000       2.701955        73.5239 
 283   0.0000       2.717132        73.9369 
 284   0.0000       2.735195        74.4284 
 285   0.0000       2.753712        74.9323 
 286   0.0000       2.764644        75.2298 
 287   0.0000       2.785967        75.8100 
 288   0.0000       2.795071        76.0578 
 289   0.0000       2.809989        76.4637 
 290   0.0000       2.824491        76.8583 
 291   0.0000       2.834294        77.1251 
 292   0.0000       2.850445        77.5645 
 293   0.0000       2.862008        77.8792 
 294   0.0000       2.875594        78.2489 
 295   0.0000       2.889470        78.6265 
 296   0.0000       2.898269        78.8659 
 297   0.0000       2.901095        78.9428 
 298   0.0000       2.925401        79.6042 
 299   0.0000       2.945823        80.1599 
 300   0.0000       2.958445        80.5034 
 301   0.0000       2.979814        81.0849 
 302   0.0000       2.992828        81.4390 
 303   0.0000       3.005509        81.7840 
 304   0.0000       3.017901        82.1213 
 305   0.0000       3.025227        82.3206 
 306   0.0000       3.029648        82.4409 
 307   0.0000       3.058056        83.2139 
 308   0.0000       3.066402        83.4410 
 309   0.0000       3.073676        83.6390 
 310   0.0000       3.099863        84.3516 
 311   0.0000       3.111354        84.6642 
 312   0.0000       3.117961        84.8440 
 313   0.0000       3.120722        84.9192 
 314   0.0000       3.147571        85.6498 
 315   0.0000       3.160032        85.9888 
 316   0.0000       3.167966        86.2047 
 317   0.0000       3.189015        86.7775 
 318   0.0000       3.196804        86.9894 
 319   0.0000       3.206155        87.2439 
 320   0.0000       3.216771        87.5328 
 321   0.0000       3.237222        88.0893 
 322   0.0000       3.251153        88.4684 
 323   0.0000       3.262371        88.7736 
 324   0.0000       3.290347        89.5349 
 325   0.0000       3.314091        90.1810 
 326   0.0000       3.316864        90.2564 
 327   0.0000       3.323389        90.4340 
 328   0.0000       3.331954        90.6671 
 329   0.0000       3.340757        90.9066 
 330   0.0000       3.349228        91.1371 
 331   0.0000       3.374456        91.8236 
 332   0.0000       3.379544        91.9621 
 333   0.0000       3.388117        92.1953 
 334   0.0000       3.393092        92.3307 
 335   0.0000       3.410328        92.7998 
 336   0.0000       3.414130        92.9032 
 337   0.0000       3.444460        93.7285 
 338   0.0000       3.457646        94.0873 
 339   0.0000       3.485578        94.8474 
 340   0.0000       3.501033        95.2680 
 341   0.0000       3.512051        95.5678 
 342   0.0000       3.560206        96.8781 
 343   0.0000       3.560627        96.8896 
 344   0.0000       3.570018        97.1451 
 345   0.0000       3.571545        97.1867 
 346   0.0000       3.578357        97.3721 
 347   0.0000       3.587099        97.6099 
 348   0.0000       3.591815        97.7383 
 349   0.0000       3.611397        98.2711 
 350   0.0000       3.664855        99.7258 
 351   0.0000       3.676098       100.0317 
 352   0.0000       3.686061       100.3028 
 353   0.0000       3.712812       101.0308 
 354   0.0000       3.734490       101.6206 
 355   0.0000       3.774222       102.7018 
 356   0.0000       3.780702       102.8781 
 357   0.0000       3.805594       103.5555 
 358   0.0000       3.826349       104.1203 
 359   0.0000       3.837499       104.4237 
 360   0.0000       3.843388       104.5839 
 361   0.0000       3.870458       105.3205 
 362   0.0000       3.899184       106.1022 
 363   0.0000       3.917214       106.5928 
 364   0.0000       3.959574       107.7455 
 365   0.0000       3.968514       107.9887 
 366   0.0000       3.996704       108.7558 
 367   0.0000       3.998756       108.8117 
 368   0.0000       4.020770       109.4107 
 369   0.0000       4.042809       110.0104 
 370   0.0000       4.055491       110.3555 
 371   0.0000       4.101553       111.6089 
 372   0.0000       4.106547       111.7448 
 373   0.0000       4.132258       112.4445 
 374   0.0000       4.159827       113.1946 
 375   0.0000       4.181669       113.7890 
 376   0.0000       4.217199       114.7558 
 377   0.0000       4.246805       115.5614 
 378   0.0000       4.258555       115.8812 
 379   0.0000       4.302875       117.0872 
 380   0.0000       4.314327       117.3988 
 381   0.0000       4.408687       119.9665 
 382   0.0000       4.438519       120.7782 
 383   0.0000       4.479195       121.8851 
 384   0.0000       4.499142       122.4279 
 385   0.0000       4.568198       124.3070 
 386   0.0000       4.574168       124.4694 
 387   0.0000       4.598036       125.1189 
 388   0.0000       4.619218       125.6953 
 389   0.0000       4.653129       126.6181 
 390   0.0000       4.672052       127.1330 
 391   0.0000       4.693904       127.7276 
 392   0.0000       4.719202       128.4160 
 393   0.0000       4.727872       128.6519 
 394   0.0000       4.776736       129.9816 
 395   0.0000       4.811262       130.9211 
 396   0.0000       4.822382       131.2237 
 397   0.0000       4.870927       132.5447 
 398   0.0000       4.875873       132.6793 
 399   0.0000       4.916836       133.7939 
 400   0.0000       4.960852       134.9917 
 401   0.0000       4.974684       135.3680 
 402   0.0000       5.059845       137.6854 
 403   0.0000       5.072407       138.0272 
 404   0.0000       5.120250       139.3291 
 405   0.0000       5.141948       139.9195 
 406   0.0000       5.145598       140.0188 
 407   0.0000       5.226574       142.2223 
 408   0.0000       5.242667       142.6602 
 409   0.0000       5.279553       143.6640 
 410   0.0000       5.312516       144.5609 
 411   0.0000       5.320861       144.7880 
 412   0.0000       5.350214       145.5867 
 413   0.0000       5.505364       149.8086 
 414   0.0000       5.516803       150.1198 
 415   0.0000       5.623015       153.0100 
 416   0.0000       5.634897       153.3334 
 417   0.0000       5.659966       154.0155 
 418   0.0000       5.677319       154.4877 
 419   0.0000       5.677422       154.4905 
 420   0.0000       5.677621       154.4959 
 421   0.0000       5.677654       154.4968 
 422   0.0000       5.677794       154.5006 
 423   0.0000       5.678050       154.5076 
 424   0.0000       5.678050       154.5076 
 425   0.0000       5.826505       158.5473 
 426   0.0000       6.006338       163.4408 
 427   0.0000       6.063116       164.9858 
 428   0.0000       6.164914       167.7559 
 429   0.0000       6.266859       170.5299 
 430   0.0000       6.302067       171.4880 
 431   0.0000       6.311127       171.7345 
 432   0.0000       6.529126       177.6665 
 433   0.0000       6.563597       178.6045 
 434   0.0000       6.607597       179.8019 
 435   0.0000       6.663414       181.3207 
 436   0.0000       6.736564       183.3112 
 437   0.0000       6.821868       185.6325 
 438   0.0000       6.985279       190.0791 
 439   0.0000       7.014226       190.8668 
 440   0.0000       7.182052       195.4336 
 441   0.0000      22.019585       599.1834 
 442   0.0000      22.104370       601.4905 
 443   0.0000      22.219896       604.6341 
 444   0.0000      22.384128       609.1031 
 445   0.0000      22.426287       610.2503 
 446   0.0000      22.591212       614.7381 
 447   0.0000      22.656166       616.5056 
 448   0.0000      23.155687       630.0983 
 449   0.0000      31.625437       860.5719 
 450   0.0000      43.466084      1182.7723 
 451   0.0000      43.668737      1188.2867 

                 SPIN DOWN ORBITALS
  NO   OCC          E(Eh)            E(eV) 
   0   1.0000    -321.474555     -8747.7674 
   1   1.0000     -38.239299     -1040.5442 
   2   1.0000     -33.530343      -912.4070 
   3   1.0000     -33.530285      -912.4054 
   4   1.0000     -33.530220      -912.4037 
   5   1.0000     -18.785429      -511.1775 
   6   1.0000     -18.680849      -508.3318 
   7   1.0000     -14.117212      -384.1489 
   8   1.0000      -9.982206      -271.6296 
   9   1.0000      -9.943841      -270.5857 
  10   1.0000      -9.932983      -270.2902 
[...]
     33      -0.000104   0.000005   0.000446  -0.000108   0.003799  -0.040379
     34       0.000069  -0.000034   0.000111  -0.000585   0.011179  -0.075516
     35      -0.000018   0.000026   0.000075   0.000006  -0.000109  -0.002717
     36       0.000060   0.000107  -0.000590  -0.000057  -0.000496  -0.002302
     37      -0.000063  -0.000057  -0.001259   0.000067   0.000753   0.001348
     38       0.000013   0.000048  -0.000085  -0.000027  -0.000173  -0.000555
     39      -0.000031  -0.000060   0.000374   0.000019   0.000355   0.000432
     40      -0.000011   0.000030   0.000173   0.000002  -0.000115  -0.000072
     41      -0.000000  -0.000025   0.000077   0.000004   0.000094   0.000095
     42       0.000063  -0.000021   0.001864  -0.000115   0.000334  -0.000007
     43      -0.000208   0.000085  -0.011535   0.000598   0.000131  -0.000599
     44       0.000033  -0.000002   0.000845  -0.000026   0.000095   0.000093
     45       0.001614  -0.011591  -0.443474   0.016917  -0.022646  -0.004919
     46       0.001575  -0.019662  -0.887711   0.034887  -0.048058  -0.010395
     47       0.000829  -0.002168  -0.050963   0.002229  -0.002532  -0.000563
     48       0.141327  -0.191928  -0.001218  -0.049460  -0.015736  -0.000613
     49      -0.347365   0.480329  -0.000111   0.131906   0.029801   0.000414
     50       0.175858  -0.243602  -0.000704  -0.068320  -0.016059  -0.000553
     51      -0.092451   0.133326  -0.007763   0.014512   0.000178  -0.000621
     52      -0.274471   0.415202  -0.016558   0.046391   0.005035  -0.000181
     53      -0.229166   0.351652  -0.014740   0.039538   0.003287  -0.000267
     54       0.550030   0.512509  -0.033286  -0.643262  -0.024271   0.001059
     55      -0.064399  -0.054436   0.002742   0.058071   0.002231  -0.000211
     56       0.048698   0.043340  -0.001850  -0.044764  -0.001022   0.000201
     57      -0.136631  -0.066251  -0.004893  -0.144892  -0.006971   0.000001
     58       0.557516   0.261075   0.018797   0.668612   0.033133  -0.000107
     59      -0.217274  -0.103035  -0.006657  -0.266703  -0.013516   0.000076
     60      -0.005817   0.014239   0.030772   0.025368  -0.519989  -0.086452
     61       0.006471  -0.018214  -0.045578  -0.038474   0.811182   0.128035
     62      -0.002110   0.004989   0.010336   0.008721  -0.179220  -0.029054
     63      -0.000869   0.001367  -0.001069   0.003965  -0.071384   0.447511
     64      -0.001714   0.002683  -0.002285   0.008046  -0.144494   0.875529
     65      -0.000408   0.000249  -0.000039   0.000559  -0.003749   0.026936
     66       0.000006   0.000010   0.000004   0.000009   0.000006   0.000002
     67       0.000007   0.000005  -0.000001  -0.000002   0.000001   0.000000
     68      -0.000006  -0.000010  -0.000003  -0.000002  -0.000009  -0.000001
                 66         67         68    
      0       0.000039   0.000010   0.033841
      1      -0.000021   0.000022   0.051445
      2       0.000025   0.000002   0.005147
      3      -0.000098  -0.000030   0.002040
      4       0.000058  -0.000024   0.002167
      5      -0.000098   0.000000   0.000323
      6       0.000302  -0.000022   0.000032
      7      -0.000318   0.000062  -0.001725
      8       0.000040  -0.000067   0.000082
      9      -0.000702   0.000114   0.000013
     10      -0.000173   0.000104   0.000382
     11       0.000395  -0.000083   0.000011
     12       0.000043   0.000121  -0.000005
     13      -0.000368  -0.000481  -0.000059
     14      -0.000280   0.000260  -0.000022
     15       0.001707  -0.000912  -0.000008
     16       0.001255   0.001353  -0.000046
     17       0.000090  -0.001006  -0.000012
     18       0.055363  -0.044274  -0.000037
     19       0.021830   0.062453  -0.000020
     20       0.002288  -0.017718   0.000096
     21       0.008976  -0.000670   0.000714
     22       0.006641   0.004671   0.000328
     23      -0.021035  -0.001232  -0.001282
     24      -0.905897   0.383805   0.000186
     25       0.059315  -0.006688  -0.000076
     26      -0.105371   0.036582   0.000049
     27       0.119145   0.232987  -0.000075
     28      -0.371022  -0.862273   0.000338
     29       0.091471   0.216686  -0.000086
     30       0.000118   0.000079   0.000001
     31       0.000622  -0.000149  -0.000150
     32       0.000099  -0.000037  -0.000006
     33       0.000197  -0.000168   0.000135
     34      -0.000009   0.000025   0.000218
     35      -0.000060  -0.000020   0.000016
     36       0.000106  -0.000020  -0.000507
     37       0.000051  -0.000031  -0.000926
     38      -0.000019   0.000022  -0.000062
     39      -0.000015  -0.000008  -0.000037
     40      -0.000013   0.000002   0.000013
     41       0.000010  -0.000009  -0.000008
     42      -0.000165  -0.000207  -0.556385
     43      -0.000239  -0.000168  -0.824176
     44      -0.000129   0.000048  -0.085286
     45       0.000180   0.000048   0.000210
     46       0.001361   0.000037   0.007784
     47       0.000007  -0.000011  -0.000232
     48      -0.000531  -0.001868   0.000083
     49       0.001052   0.002884  -0.000032
     50       0.000444   0.000061  -0.000045
     51       0.001651  -0.000126   0.000062
     52       0.001490  -0.000186   0.000297
     53       0.000468  -0.000785   0.000292
     54      -0.014228   0.006499  -0.000055
     55       0.000280  -0.000816   0.000010
     56      -0.006347   0.003846  -0.000037
     57       0.001918   0.004270   0.000048
     58      -0.010444  -0.016229   0.000034
     59       0.002270   0.002228  -0.000167
     60       0.001839  -0.000075  -0.000236
     61      -0.003867   0.000477   0.000572
     62       0.001214  -0.000349  -0.000060
     63      -0.000409   0.000203  -0.000745
     64      -0.000647   0.000167   0.000138
     65      -0.000117  -0.000015  -0.000155
     66      -0.000033   0.000005  -0.000001
     67      -0.000001  -0.000005  -0.000000
     68       0.000044   0.000005   0.000003


-----------
IR SPECTRUM
-----------

 Mode   freq       eps      Int      T**2         TX        TY        TZ
       cm**-1   L/(mol*cm) km/mol    a.u.
----------------------------------------------------------------------------
  6:     17.98   0.000627    3.17  0.010874  ( 0.051584 -0.055685  0.071502)
  7:     27.12   0.000993    5.02  0.011430  ( 0.032713  0.029213  0.097500)
  8:     53.00   0.000738    3.73  0.004347  (-0.029593  0.058751  0.004471)
  9:     71.37   0.000427    2.16  0.001868  (-0.034901 -0.007370 -0.024406)
 10:    111.95   0.000848    4.29  0.002365  (-0.007727 -0.020188  0.043561)
 11:    138.21   0.000017    0.09  0.000039  ( 0.003935  0.004468  0.002012)
 12:    171.60   0.000076    0.38  0.000138  (-0.001675 -0.009010 -0.007377)
 13:    247.66   0.000755    3.82  0.000951  ( 0.027212 -0.010706  0.009814)
 14:    294.18   0.000843    4.26  0.000895  (-0.029023  0.004613  0.005571)
 15:    321.54   0.001479    7.48  0.001436  ( 0.036268 -0.010968  0.000479)
 16:    324.87   0.005717   28.89  0.005492  ( 0.072425 -0.015437 -0.002845)
 17:    350.32   0.000379    1.92  0.000338  (-0.009675  0.014600 -0.005592)
 18:    399.10   0.007863   39.74  0.006148  ( 0.077278  0.000787 -0.013248)
 19:    417.26   0.007645   38.63  0.005718  (-0.017968  0.005917  0.073210)
 20:    457.74   0.006439   32.54  0.004390  (-0.008146 -0.000082  0.065754)
 21:    462.25   0.000098    0.50  0.000066  (-0.000105  0.008040  0.001344)
 22:    502.46   0.001173    5.93  0.000728  ( 0.012278  0.012485 -0.020535)
 23:    570.44   0.005233   26.45  0.002863  (-0.035750  0.035557  0.017901)
 24:    609.06   0.000752    3.80  0.000385  ( 0.013524  0.001486  0.014140)
 25:    683.11   0.001686    8.52  0.000770  ( 0.022806  0.012371 -0.009848)
 26:    710.80   0.000117    0.59  0.000051  ( 0.003685 -0.000946 -0.006067)
 27:    760.36   0.000407    2.06  0.000167  ( 0.003397 -0.012458 -0.000554)
 28:    798.84   0.003388   17.12  0.001323  (-0.001981  0.000349  0.036322)
 29:    800.02   0.003262   16.48  0.001272  (-0.004160 -0.001553  0.035392)
 30:    824.50   0.001631    8.24  0.000617  (-0.006352 -0.010125 -0.021782)
 31:    860.58   0.001536    7.76  0.000557  ( 0.010629  0.019558  0.007842)
 32:    902.20   0.000028    0.14  0.000010  ( 0.003034 -0.000794 -0.000013)
 33:    907.68   0.002263   11.43  0.000778  (-0.024554  0.000589 -0.013214)
 34:    939.19   0.005663   28.62  0.001882  (-0.037067  0.019127  0.011909)
 35:   1000.84   0.008296   41.92  0.002587  (-0.049727 -0.000571 -0.010658)
 36:   1032.64   0.001878    9.49  0.000568  ( 0.004812 -0.020488 -0.011170)
 37:   1065.17   0.005418   27.38  0.001587  ( 0.024138 -0.031545 -0.003080)
 38:   1095.61   0.017811   90.01  0.005073  (-0.044428  0.054802  0.009800)
 39:   1124.85   0.043093  217.77  0.011955  ( 0.093642 -0.050360 -0.025500)
 40:   1157.07   0.001234    6.24  0.000333  ( 0.002053  0.004494  0.017562)
 41:   1202.42   0.002122   10.73  0.000551  ( 0.019175 -0.010283  0.008799)
 42:   1211.42   0.003018   15.25  0.000777  ( 0.005600 -0.024648  0.011773)
 43:   1263.90   0.052449  265.05  0.012950  (-0.098980  0.039377  0.040029)
 44:   1284.51   0.002588   13.08  0.000629  ( 0.020231 -0.010752  0.010191)
 45:   1305.62   0.002203   11.13  0.000527  ( 0.017495 -0.009100 -0.011731)
 46:   1320.41   0.003053   15.43  0.000722  (-0.016641  0.001503  0.021032)
 47:   1333.13   0.002196   11.10  0.000514  (-0.001107  0.000945  0.022628)
 48:   1341.87   0.002434   12.30  0.000566  (-0.022335  0.007654  0.002915)
 49:   1397.84   0.011049   55.84  0.002467  ( 0.039626 -0.021856  0.020461)
 50:   1402.92   0.011595   58.60  0.002579  ( 0.043299 -0.025235 -0.008219)
 51:   1428.40   0.000581    2.93  0.000127  ( 0.003850  0.000307 -0.010579)
 52:   1439.51   0.021346  107.87  0.004627  ( 0.059543 -0.031181 -0.010474)
 53:   1449.39   0.049898  252.16  0.010743  ( 0.086120 -0.047761 -0.032337)
 54:   1479.92   0.029730  150.24  0.006269  ( 0.072294 -0.011280 -0.030253)
 55:   1519.40   0.045001  227.41  0.009242  ( 0.095964  0.005721  0.000794)
 56:   1542.99   0.050299  254.19  0.010173  (-0.093172  0.022301 -0.031534)
 57:   1565.80   0.007992   40.39  0.001593  ( 0.017956 -0.029306 -0.020288)
 58:   1573.60   0.007515   37.98  0.001490  (-0.022611  0.031281 -0.000737)
 59:   2963.46   0.007852   39.68  0.000827  ( 0.006673 -0.000840  0.027957)
 60:   2998.81   0.000341    1.72  0.000035  (-0.004497  0.001335 -0.003664)
 61:   3009.03   0.003572   18.05  0.000370  (-0.004787 -0.015318 -0.010623)
 62:   3042.80   0.008793   44.44  0.000902  (-0.012673  0.022012  0.016021)
 63:   3054.25   0.001356    6.85  0.000139  ( 0.005697 -0.006934  0.007618)
 64:   3066.42   0.003705   18.73  0.000377  ( 0.001149 -0.011384  0.015690)
 65:   3122.40   0.001943    9.82  0.000194  (-0.010002 -0.007964  0.005539)
 66:   3290.34   0.002046   10.34  0.000194  ( 0.001969 -0.001097 -0.013746)
 67:   3393.70   0.003276   16.55  0.000301  ( 0.005298 -0.014144  0.008549)
 68:   3660.63   0.014745   74.51  0.001257  ( 0.016679 -0.028364 -0.013201)

* The epsilon (eps) is given for a Dirac delta lineshape.
** The dipole moment derivative (T) already includes vibrational overlap.

The first frequency considered to be a vibration is 6
The total number of vibrations considered is 63


--------------------------
THERMOCHEMISTRY AT 298.15K
--------------------------

Temperature         ... 298.15 K
Pressure            ... 1.00 atm
Total Mass          ... 216.73 AMU

Throughout the following assumptions are being made:
  (1) The electronic state is orbitally nondegenerate
      but the spin degeneracy is treated
  (2) There are no thermally accessible electronically excited states
  (3) Hindered rotations indicated by low frequency modes are not
      treated as such but are treated as vibrations and this may
      cause some error
  (4) All equations used are the standard statistical mechanics
      equations for an ideal gas
  (5) All vibrations are strictly harmonic

freq.      17.98  E(vib)   ...       0.57 
freq.      27.12  E(vib)   ...       0.55 
freq.      53.00  E(vib)   ...       0.52 
freq.      71.37  E(vib)   ...       0.50 
freq.     111.95  E(vib)   ...       0.45 
freq.     138.21  E(vib)   ...       0.42 
freq.     171.60  E(vib)   ...       0.38 
freq.     247.66  E(vib)   ...       0.31 
freq.     294.18  E(vib)   ...       0.27 
freq.     321.54  E(vib)   ...       0.25 
freq.     324.87  E(vib)   ...       0.24 
freq.     350.32  E(vib)   ...       0.23 
freq.     399.10  E(vib)   ...       0.19 
freq.     417.26  E(vib)   ...       0.18 
freq.     457.74  E(vib)   ...       0.16 
freq.     462.25  E(vib)   ...       0.16 
freq.     502.46  E(vib)   ...       0.14 
freq.     570.44  E(vib)   ...       0.11 
freq.     609.06  E(vib)   ...       0.10 
freq.     683.11  E(vib)   ...       0.08 
freq.     710.80  E(vib)   ...       0.07 
freq.     760.36  E(vib)   ...       0.06 
freq.     798.84  E(vib)   ...       0.05 
freq.     800.02  E(vib)   ...       0.05 
freq.     824.50  E(vib)   ...       0.04 
freq.     860.58  E(vib)   ...       0.04 
freq.     902.20  E(vib)   ...       0.03 
freq.     907.68  E(vib)   ...       0.03 
freq.     939.19  E(vib)   ...       0.03 
freq.    1000.84  E(vib)   ...       0.02 
freq.    1032.64  E(vib)   ...       0.02 
freq.    1065.17  E(vib)   ...       0.02 
freq.    1095.61  E(vib)   ...       0.02 
freq.    1124.85  E(vib)   ...       0.01 
freq.    1157.07  E(vib)   ...       0.01 
freq.    1202.42  E(vib)   ...       0.01 
freq.    1211.42  E(vib)   ...       0.01 
freq.    1263.90  E(vib)   ...       0.01 
freq.    1284.51  E(vib)   ...       0.01 
freq.    1305.62  E(vib)   ...       0.01 
freq.    1320.41  E(vib)   ...       0.01 
freq.    1333.13  E(vib)   ...       0.01 
freq.    1341.87  E(vib)   ...       0.01 
freq.    1397.84  E(vib)   ...       0.00 
freq.    1402.92  E(vib)   ...       0.00 
freq.    1428.40  E(vib)   ...       0.00 
freq.    1439.51  E(vib)   ...       0.00 
freq.    1449.39  E(vib)   ...       0.00 
freq.    1479.92  E(vib)   ...       0.00 
freq.    1519.40  E(vib)   ...       0.00 
freq.    1542.99  E(vib)   ...       0.00 
freq.    1565.80  E(vib)   ...       0.00 
freq.    1573.60  E(vib)   ...       0.00 
freq.    2963.46  E(vib)   ...       0.00 
freq.    2998.81  E(vib)   ...       0.00 
freq.    3009.03  E(vib)   ...       0.00 
freq.    3042.80  E(vib)   ...       0.00 
freq.    3054.25  E(vib)   ...       0.00 
freq.    3066.42  E(vib)   ...       0.00 
freq.    3122.40  E(vib)   ...       0.00 
freq.    3290.34  E(vib)   ...       0.00 
freq.    3393.70  E(vib)   ...       0.00 
freq.    3660.63  E(vib)   ...       0.00 

------------
INNER ENERGY
------------

The inner energy is: U= E(el) + E(ZPE) + E(vib) + E(rot) + E(trans)
    E(el)   - is the total energy from the electronic structure calculation
              = E(kin-el) + E(nuc-el) + E(el-el) + E(nuc-nuc)
    E(ZPE)  - the the zero temperature vibrational energy from the frequency calculation
    E(vib)  - the the finite temperature correction to E(ZPE) due to population
              of excited vibrational states
    E(rot)  - is the rotational thermal energy
    E(trans)- is the translational thermal energy

Summary of contributions to the inner energy U:
Electronic energy                ...  -2156.47562406 Eh
Zero point energy                ...      0.17513746 Eh     109.90 kcal/mol
Thermal vibrational correction   ...      0.01020196 Eh       6.40 kcal/mol
Thermal rotational correction    ...      0.00141627 Eh       0.89 kcal/mol
Thermal translational correction ...      0.00141627 Eh       0.89 kcal/mol
-----------------------------------------------------------------------
Total thermal energy                  -2156.28745209 Eh


Summary of corrections to the electronic energy:
(perhaps to be used in another calculation)
Total thermal correction                  0.01303450 Eh       8.18 kcal/mol
Non-thermal (ZPE) correction              0.17513746 Eh     109.90 kcal/mol
-----------------------------------------------------------------------
Total correction                          0.18817196 Eh     118.08 kcal/mol


--------
ENTHALPY
--------

The enthalpy is H = U + kB*T
                kB is Boltzmann's constant
Total free energy                 ...  -2156.28745209 Eh 
Thermal Enthalpy correction       ...      0.00094421 Eh       0.59 kcal/mol
-----------------------------------------------------------------------
Total Enthalpy                    ...  -2156.28650788 Eh


Note: Only C1 symmetry has been detected, increase convergence thresholds 
      if your molecule has a higher symmetry. Symmetry factor of 1.0 is   
      used for the rotational entropy correction. 
 

Note: Rotational entropy computed according to Herzberg 
Infrared and Raman Spectra, Chapter V,1, Van Nostrand Reinhold, 1945 
Point Group:  C1, Symmetry Number:   1  
Rotational constants in cm-1:     0.038141     0.007691     0.007380 

Vibrational entropy computed according to the QRRHO of S. Grimme
Chem.Eur.J. 2012 18 9955


-------
ENTROPY
-------

The entropy contributions are T*S = T*(S(el)+S(vib)+S(rot)+S(trans))
     S(el)   - electronic entropy
     S(vib)  - vibrational entropy
     S(rot)  - rotational entropy
     S(trans)- translational entropy
The entropies will be listed as multiplied by the temperature to get
units of energy

Electronic entropy                ...      0.00065446 Eh      0.41 kcal/mol
Vibrational entropy               ...      0.01837667 Eh     11.53 kcal/mol
Rotational entropy                ...      0.01566834 Eh      9.83 kcal/mol
Translational entropy             ...      0.01996671 Eh     12.53 kcal/mol
-----------------------------------------------------------------------
Final entropy term                ...      0.05466617 Eh     34.30 kcal/mol

In case the symmetry of your molecule has not been determined correctly
or in case you have a reason to use a different symmetry number we print 
out the resulting rotational entropy values for sn=1,12 :
 --------------------------------------------------------
|  sn= 1 | S(rot)=       0.01566834 Eh      9.83 kcal/mol|
|  sn= 2 | S(rot)=       0.01501388 Eh      9.42 kcal/mol|
|  sn= 3 | S(rot)=       0.01463105 Eh      9.18 kcal/mol|
|  sn= 4 | S(rot)=       0.01435942 Eh      9.01 kcal/mol|
|  sn= 5 | S(rot)=       0.01414874 Eh      8.88 kcal/mol|
|  sn= 6 | S(rot)=       0.01397659 Eh      8.77 kcal/mol|
|  sn= 7 | S(rot)=       0.01383104 Eh      8.68 kcal/mol|
|  sn= 8 | S(rot)=       0.01370497 Eh      8.60 kcal/mol|
|  sn= 9 | S(rot)=       0.01359376 Eh      8.53 kcal/mol|
|  sn=10 | S(rot)=       0.01349428 Eh      8.47 kcal/mol|
|  sn=11 | S(rot)=       0.01340429 Eh      8.41 kcal/mol|
|  sn=12 | S(rot)=       0.01332213 Eh      8.36 kcal/mol|
 --------------------------------------------------------


-------------------
GIBBS FREE ENERGY
-------------------

The Gibbs free energy is G = H - T*S

Total enthalpy                    ...  -2156.28650788 Eh 
Total entropy correction          ...     -0.05466617 Eh    -34.30 kcal/mol
-----------------------------------------------------------------------
Final Gibbs free energy         ...  -2156.34117405 Eh

For completeness - the Gibbs free energy minus the electronic energy
G-E(el)                           ...      0.13445000 Eh     84.37 kcal/mol



Timings for individual modules:

Sum of individual times         ...     8913.750 sec (= 148.562 min)
GTO integral calculation        ...       23.663 sec (=   0.394 min)   0.3 %
SCF iterations                  ...     2028.495 sec (=  33.808 min)  22.8 %
SCF Gradient evaluation         ...      288.697 sec (=   4.812 min)   3.2 %
Geometry relaxation             ...        1.762 sec (=   0.029 min)   0.0 %
Numerical frequency calculation ...     6571.132 sec (= 109.519 min)  73.7 %
                             ****ORCA TERMINATED NORMALLY****
TOTAL RUN TIME: 0 days 2 hours 28 minutes 33 seconds 551 msec
