
                                 *****************
                                 * O   R   C   A *
                                 *****************

                                            #,                                       
                                            ###                                      
                                            ####                                     
                                            #####                                    
                                            ######                                   
                                           ########,                                 
                                     ,,################,,,,,                         
                               ,,#################################,,                 
                          ,,##########################################,,             
                       ,#########################################, ''#####,          
                    ,#############################################,,   '####,        
                  ,##################################################,,,,####,       
                ,###########''''           ''''###############################       
              ,#####''   ,,,,##########,,,,          '''####'''          '####       
            ,##' ,,,,###########################,,,                        '##       
           ' ,,###''''                  '''############,,,                           
         ,,##''                                '''############,,,,        ,,,,,,###''
      ,#''                                            '''#######################'''  
     '                                                          ''''####''''         
             ,#######,   #######,   ,#######,      ##                                
            ,#'     '#,  ##    ##  ,#'     '#,    #''#        ######   ,####,        
            ##       ##  ##   ,#'  ##            #'  '#       #        #'  '#        
            ##       ##  #######   ##           ,######,      #####,   #    #        
            '#,     ,#'  ##    ##  '#,     ,#' ,#      #,         ##   #,  ,#        
             '#######'   ##     ##  '#######'  #'      '#     #####' # '####'        



                  #######################################################
                  #                        -***-                        #
                  #          Department of theory and spectroscopy      #
                  #    Directorship and core code : Frank Neese         #
                  #        Max Planck Institute fuer Kohlenforschung    #
                  #                Kaiser Wilhelm Platz 1               #
                  #                 D-45470 Muelheim/Ruhr               #
                  #                      Germany                        #
                  #                                                     #
                  #                  All rights reserved                #
                  #                        -***-                        #
                  #######################################################


                         Program Version 5.0.2 -  RELEASE  -


 With contributions from (in alphabetic order):
   Daniel Aravena         : Magnetic Suceptibility
   Michael Atanasov       : Ab Initio Ligand Field Theory (pilot matlab implementation)
   Alexander A. Auer      : GIAO ZORA, VPT2 properties, NMR spectrum
   Ute Becker             : Parallelization
   Giovanni Bistoni       : ED, misc. LED, open-shell LED, HFLD
   Martin Brehm           : Molecular dynamics
   Dmytro Bykov           : SCF Hessian
   Vijay G. Chilkuri      : MRCI spin determinant printing, contributions to CSF-ICE
   Dipayan Datta          : RHF DLPNO-CCSD density
   Achintya Kumar Dutta   : EOM-CC, STEOM-CC
   Dmitry Ganyushin       : Spin-Orbit,Spin-Spin,Magnetic field MRCI
   Miquel Garcia          : C-PCM and meta-GGA Hessian, CC/C-PCM, Gaussian charge scheme
   Yang Guo               : DLPNO-NEVPT2, F12-NEVPT2, CIM, IAO-localization
   Andreas Hansen         : Spin unrestricted coupled pair/coupled cluster methods
   Benjamin Helmich-Paris : MC-RPA, TRAH-SCF, COSX integrals
   Lee Huntington         : MR-EOM, pCC
   Robert Izsak           : Overlap fitted RIJCOSX, COSX-SCS-MP3, EOM
   Marcus Kettner         : VPT2
   Christian Kollmar      : KDIIS, OOCD, Brueckner-CCSD(T), CCSD density, CASPT2, CASPT2-K
   Simone Kossmann        : Meta GGA functionals, TD-DFT gradient, OOMP2, MP2 Hessian
   Martin Krupicka        : Initial AUTO-CI
   Lucas Lang             : DCDCAS
   Marvin Lechner         : AUTO-CI (C++ implementation), FIC-MRCC
   Dagmar Lenk            : GEPOL surface, SMD
   Dimitrios Liakos       : Extrapolation schemes; Compound Job, initial MDCI parallelization
   Dimitrios Manganas     : Further ROCIS development; embedding schemes
   Dimitrios Pantazis     : SARC Basis sets
   Anastasios Papadopoulos: AUTO-CI, single reference methods and gradients
   Taras Petrenko         : DFT Hessian,TD-DFT gradient, ASA, ECA, R-Raman, ABS, FL, XAS/XES, NRVS
   Peter Pinski           : DLPNO-MP2, DLPNO-MP2 Gradient
   Christoph Reimann      : Effective Core Potentials
   Marius Retegan         : Local ZFS, SOC
   Christoph Riplinger    : Optimizer, TS searches, QM/MM, DLPNO-CCSD(T), (RO)-DLPNO pert. Triples
   Tobias Risthaus        : Range-separated hybrids, TD-DFT gradient, RPA, STAB
   Michael Roemelt        : Original ROCIS implementation
   Masaaki Saitow         : Open-shell DLPNO-CCSD energy and density
   Barbara Sandhoefer     : DKH picture change effects
   Avijit Sen             : IP-ROCIS
   Kantharuban Sivalingam : CASSCF convergence, NEVPT2, FIC-MRCI
   Bernardo de Souza      : ESD, SOC TD-DFT
   Georgi Stoychev        : AutoAux, RI-MP2 NMR, DLPNO-MP2 response
   Willem Van den Heuvel  : Paramagnetic NMR
   Boris Wezisla          : Elementary symmetry handling
   Frank Wennmohs         : Technical directorship


 We gratefully acknowledge several colleagues who have allowed us to
 interface, adapt or use parts of their codes:
   Stefan Grimme, W. Hujo, H. Kruse, P. Pracht,  : VdW corrections, initial TS optimization,
                  C. Bannwarth, S. Ehlert          DFT functionals, gCP, sTDA/sTD-DF
   Ed Valeev, F. Pavosevic, A. Kumar             : LibInt (2-el integral package), F12 methods
   Garnet Chan, S. Sharma, J. Yang, R. Olivares  : DMRG
   Ulf Ekstrom                                   : XCFun DFT Library
   Mihaly Kallay                                 : mrcc  (arbitrary order and MRCC methods)
   Jiri Pittner, Ondrej Demel                    : Mk-CCSD
   Frank Weinhold                                : gennbo (NPA and NBO analysis)
   Christopher J. Cramer and Donald G. Truhlar   : smd solvation model
   Lars Goerigk                                  : TD-DFT with DH, B97 family of functionals
   V. Asgeirsson, H. Jonsson                     : NEB implementation
   FAccTs GmbH                                   : IRC, NEB, NEB-TS, DLPNO-Multilevel, CI-OPT
                                                   MM, QMMM, 2- and 3-layer-ONIOM, Crystal-QMMM,
                                                   LR-CPCM, SF, NACMEs, symmetry and pop. for TD-DFT,
                                                   nearIR, NL-DFT gradient (VV10), updates on ESD,
                                                   ML-optimized integration grids
   S Lehtola, MJT Oliveira, MAL Marques          : LibXC Library
   Liviu Ungur et al                             : ANISO software


 Your calculation uses the libint2 library for the computation of 2-el integrals
 For citations please refer to: http://libint.valeyev.net

 Your ORCA version has been built with support for libXC version: 5.1.0
 For citations please refer to: https://tddft.org/programs/libxc/

 This ORCA versions uses:
   CBLAS   interface :  Fast vector & matrix operations
   LAPACKE interface :  Fast linear algebra routines
   SCALAPACK package :  Parallel linear algebra routines
   Shared memory     :  Shared parallel matrices
   BLAS/LAPACK       :  OpenBLAS 0.3.15  USE64BITINT DYNAMIC_ARCH NO_AFFINITY Haswell SINGLE_THREADED
        Core in use  :  Haswell
   Copyright (c) 2011-2014, The OpenBLAS Project


Your calculation utilizes the atom-pairwise dispersion correction
with the Becke-Johnson damping scheme (D3BJ)
Cite in your paper:
S.Grimme, S.Ehrlich, L.Goerigk, J Comput Chem, (2011), 32, 1456–1465 
S.Grimme, J.Antony, S.Ehrlich and H.Krieg, J.Chem.Phys., 132, (2010), 154104 
   

================================================================================

----- Orbital basis set information -----
Your calculation utilizes the basis: def2-TZVP
   F. Weigend and R. Ahlrichs, Phys. Chem. Chem. Phys. 7, 3297 (2005).

----- AuxJ basis set information -----
Your calculation utilizes the auxiliary basis: def2/J
   F. Weigend, Phys. Chem. Chem. Phys. 8, 1057 (2006).

================================================================================
                                        WARNINGS
                       Please study these warnings very carefully!
================================================================================


WARNING: The environment variable RSH_COMMAND is not set!
  ===> : All Displacements for the Numerical Hessian or Gradient calculation
         will be started on localhost

INFO   : the flag for use of the SHARK integral package has been found!

Your calculation utilizes the atom-pairwise dispersion correction
with the Becke-Johnson damping scheme (D3BJ)
Cite in your paper:
S.Grimme, S.Ehrlich, L.Goerigk, J Comput Chem, (2011), 32, 1456–1465 
S.Grimme, J.Antony, S.Ehrlich and H.Krieg, J.Chem.Phys., 132, (2010), 154104 
   

================================================================================

----- Orbital basis set information -----
Your calculation utilizes the basis: def2-TZVP
   F. Weigend and R. Ahlrichs, Phys. Chem. Chem. Phys. 7, 3297 (2005).

----- AuxJ basis set information -----
Your calculation utilizes the auxiliary basis: def2/J
   F. Weigend, Phys. Chem. Chem. Phys. 8, 1057 (2006).

================================================================================
                                        WARNINGS
                       Please study these warnings very carefully!
================================================================================


WARNING: MOInp is set but Guess=PModel. MOInp will be ignored!
         To read the initial guess from a file you must also specify
         'MORead' in the simple input or 'Guess MORead' in the %scf block


WARNING: The environment variable RSH_COMMAND is not set!
  ===> : All Displacements for the Numerical Hessian or Gradient calculation
         will be started on localhost

INFO   : the flag for use of the SHARK integral package has been found!

Your calculation utilizes the atom-pairwise dispersion correction
with the Becke-Johnson damping scheme (D3BJ)
Cite in your paper:
S.Grimme, S.Ehrlich, L.Goerigk, J Comput Chem, (2011), 32, 1456–1465 
S.Grimme, J.Antony, S.Ehrlich and H.Krieg, J.Chem.Phys., 132, (2010), 154104 
   

================================================================================

----- Orbital basis set information -----
Your calculation utilizes the basis: def2-TZVP
   F. Weigend and R. Ahlrichs, Phys. Chem. Chem. Phys. 7, 3297 (2005).

----- AuxJ basis set information -----
Your calculation utilizes the auxiliary basis: def2/J
   F. Weigend, Phys. Chem. Chem. Phys. 8, 1057 (2006).

================================================================================
                                        WARNINGS
                       Please study these warnings very carefully!
================================================================================


WARNING: MOInp is set but Guess=PModel. MOInp will be ignored!
         To read the initial guess from a file you must also specify
         'MORead' in the simple input or 'Guess MORead' in the %scf block


WARNING: The environment variable RSH_COMMAND is not set!
  ===> : All Displacements for the Numerical Hessian or Gradient calculation
         will be started on localhost

INFO   : the flag for use of the SHARK integral package has been found!

Your calculation utilizes the atom-pairwise dispersion correction
with the Becke-Johnson damping scheme (D3BJ)
Cite in your paper:
S.Grimme, S.Ehrlich, L.Goerigk, J Comput Chem, (2011), 32, 1456–1465 
S.Grimme, J.Antony, S.Ehrlich and H.Krieg, J.Chem.Phys., 132, (2010), 154104 
   

================================================================================

----- Orbital basis set information -----
Your calculation utilizes the basis: def2-TZVP
   F. Weigend and R. Ahlrichs, Phys. Chem. Chem. Phys. 7, 3297 (2005).

----- AuxJ basis set information -----
Your calculation utilizes the auxiliary basis: def2/J
   F. Weigend, Phys. Chem. Chem. Phys. 8, 1057 (2006).

================================================================================
                                        WARNINGS
                       Please study these warnings very carefully!
================================================================================


WARNING: MOInp is set but Guess=PModel. MOInp will be ignored!
         To read the initial guess from a file you must also specify
         'MORead' in the simple input or 'Guess MORead' in the %scf block


WARNING: The environment variable RSH_COMMAND is not set!
  ===> : All Displacements for the Numerical Hessian or Gradient calculation
         will be started on localhost

INFO   : the flag for use of the SHARK integral package has been found!

Your calculation utilizes the atom-pairwise dispersion correction
with the Becke-Johnson damping scheme (D3BJ)
Cite in your paper:
S.Grimme, S.Ehrlich, L.Goerigk, J Comput Chem, (2011), 32, 1456–1465 
S.Grimme, J.Antony, S.Ehrlich and H.Krieg, J.Chem.Phys., 132, (2010), 154104 
   

================================================================================

----- Orbital basis set information -----
Your calculation utilizes the basis: def2-TZVP
   F. Weigend and R. Ahlrichs, Phys. Chem. Chem. Phys. 7, 3297 (2005).

----- AuxJ basis set information -----
Your calculation utilizes the auxiliary basis: def2/J
   F. Weigend, Phys. Chem. Chem. Phys. 8, 1057 (2006).

================================================================================
                                        WARNINGS
                       Please study these warnings very carefully!
================================================================================


WARNING: MOInp is set but Guess=PModel. MOInp will be ignored!
         To read the initial guess from a file you must also specify
         'MORead' in the simple input or 'Guess MORead' in the %scf block


WARNING: The environment variable RSH_COMMAND is not set!
  ===> : All Displacements for the Numerical Hessian or Gradient calculation
         will be started on localhost

INFO   : the flag for use of the SHARK integral package has been found!

================================================================================
                                       INPUT FILE
================================================================================
NAME = ex.inp
|  1> # preopt in PBE-D3
|  2> 
|  3> ! B3LYP D3 TightSCF def2-TZVP slowconv PModel cpcm(water) opt numfreq
|  4> %pal nprocs=16 end
|  5> %geom maxiter=150 end
|  6> %elprop Polar 1 end
|  7> %base "neutral"
|  8> *xyz 0 1
|  9>   C   -0.16956275902319     -1.05723776953197     -0.42855573482908
| 10>   C   -1.12049633747951      1.56689456986943     -0.40457714593906
| 11>   C   -1.49766850531287     -0.80182883019116     -0.09789615908916
| 12>   C   0.70732932900320     -0.00823930703059     -0.75419200869246
| 13>   C   0.21367419221910      1.30221872431803     -0.73622877732475
| 14>   C   -1.98334857764453      0.52206579760669     -0.08371303193396
| 15>   O   -3.28969424706806      0.78221108257525      0.23679794331409
| 16>   O   -2.41559817817122     -1.77020993683817      0.22649082221633
| 17>   C   2.15856108487085     -0.29741264721991     -1.04859825776193
| 18>   C   2.97699274407939     -0.56111664179439      0.22438078848305
| 19>   N   3.00140109056235      0.59987802667241      1.15141474454759
| 20>   H   0.18425558916964     -2.09273283462065     -0.43226705452194
| 21>   H   -1.50434247619658      2.58866486627717     -0.39495791168826
| 22>   H   0.87782850150056      2.13121758201600     -0.98897223308437
| 23>   H   -3.72644112671859     -0.07268297627110      0.42468394020453
| 24>   H   -1.99410558179115     -2.64896350266336      0.18712276410747
| 25>   H   2.60584930272273      0.55084901765693     -1.59067756468002
| 26>   H   2.24956711915552     -1.18389655493360     -1.69625431507643
| 27>   H   2.55895834412829     -1.41779134519945      0.77113567634485
| 28>   H   4.01534790078667     -0.80613156929532     -0.03624050077794
| 29>   H   2.03329879380544      0.87750018145755      1.35629998853939
| 30>   H   3.41350574596892      1.40462765690431      0.66496033844458
| 31>   Cu  5.02114396194472      0.09179327663091      4.89000358850794
| 32>   Cu  3.94820870312324      0.34900523529700      2.87477731823652
| 33> *
| 34> 
| 35> 
| 36> $new_job
| 37> 
| 38> ! B3LYP D3 TightSCF def2-TZVP slowconv PModel cpcm(water) opt numfreq
| 39> %pal nprocs=16 end
| 40> %geom maxiter=150 end
| 41> %elprop Polar 1 end
| 42> %base "protonated"
| 43> *xyz 1 1
| 44>   C   -0.90555691796236     -1.76727196196750      0.06781371989323
| 45>   C   -0.12834988709469      0.92274951786431      0.27523755411363
| 46>   C   -1.80381126969437     -0.75055130417119     -0.30261320008491
| 47>   C   0.38618984625102     -1.42703607492861      0.55791935662923
| 48>   C   0.78429358859036     -0.07478825507147      0.64934866445700
| 49>   C   -1.40302561317021      0.60000140186490     -0.19490258576677
| 50>   O   -3.05051051858996     -1.08082130972810     -0.72823220400369
| 51>   O   -2.34302401539286      1.51694514377157     -0.56538160180721
| 52>   C   2.16328992340225      0.29707393066189      1.13544356823738
| 53>   C   3.07847444984984      0.87939305022518      0.05980406178152
| 54>   N   3.49433775360465     -0.14528000282081     -0.95183106658424
| 55>   H   2.67732043509841     -0.52668097524284     -1.52095056778184
| 56>   H   4.15878154021069      0.25526394417826     -1.62786300425135
| 57>   H   3.95537783810907     -0.95009205225430     -0.50552217070248
| 58>   H   -1.25254838851214     -2.80172036596369      0.07740172612679
| 59>   H   0.15383003645268      1.97713903579491      0.34361163442234
| 60>   H   1.04001011376029     -2.21271236491610      0.94086042341998
| 61>   H   -3.52734240454617     -0.25626197954279     -0.95548314521913
| 62>   H   -1.99078192515984      2.42160990285829     -0.46422612206559
| 63>   H   2.64874967274188     -0.57704322548680      1.59562618502889
| 64>   H   2.08346617924978      1.06595788620024      1.91940314460614
| 65>   H   2.58715152857642      1.68865588234252     -0.49485351875117
| 66>   H   3.99923751311326      1.26964953991042      0.50998323011687
| 67>   Cu  0.50815416230542     -1.55136817752279     -1.56549688258349
| 68>   Cu  1.59341250580748     -1.25898787843247     -3.55746432771010
| 69> *
| 70> 
| 71> 
| 72> $new_job
| 73> 
| 74> ! B3LYP D3 TightSCF def2-TZVP slowconv PModel cpcm(water) opt numfreq
| 75> %pal nprocs=16 end
| 76> %geom maxiter=150 end
| 77> %elprop Polar 1 end
| 78> %base "deprotonated"
| 79> *xyz -1 1
| 80>   O   2.31492786438966     -1.88111046153497     -0.35995601435756
| 81>   O   3.32215631797726      0.47281535203735     -0.38750329221530
| 82>   N   -2.94594324708543      0.70379108933975     -1.08282437235664
| 83>   C   -2.12324767925480     -0.19852765943722      1.11322762861623
| 84>   C   -0.66904514744192      0.01255725444151      0.76826759696115
| 85>   C   -2.99625876990075     -0.43648939647672     -0.12847501122529
| 86>   C   0.14077087930782     -1.08701929460024      0.38927482100724
| 87>   C   -0.09984580535831      1.29090730067584      0.74491582238464
| 88>   C   1.45637917764210     -0.87912000154714      0.01393297570922
| 89>   C   1.23876312933849      1.50521773576701      0.36474716585754
| 90>   C   2.06972870523363      0.42744040671043     -0.01686039104136
| 91>   H   -2.51125902558707      0.68055712731164      1.65410752196721
| 92>   H   -2.24749789616294     -1.06865410638947      1.78007701132043
| 93>   H   -4.04632338659281     -0.59465896119588      0.15432197814706
| 94>   H   -2.65379480289609     -1.33443038369679     -0.66186903265321
| 95>   H   -0.27044086685890     -2.10143701090159      0.39379138751322
| 96>   H   -0.71479671895292      2.14780395547732      1.03714876749039
| 97>   H   1.65338848302474      2.51761462704979      0.36400324968783
| 98>   H   -1.95532646168415      0.93704608296165     -1.23733186410258
| 99>   H   -3.34256107837562      1.53257045954505     -0.62477779340458
|100>   H   3.13393620683108     -1.31675605984705     -0.54045410433459
|101>   Cu  -4.82005470809202      0.16072103823250     -4.88906016197419
|102>   Cu  -3.82075354936399      0.44527003202422     -2.83741914032483
|103> *
|104> 
|105> $new_job
|106> 
|107> ! B3LYP D3 TightSCF def2-TZVP slowconv PModel cpcm(water) opt numfreq
|108> %pal nprocs=16 end
|109> %geom maxiter=150 end
|110> %elprop Polar 1 end
|111> %base "2x_deprotonated"
|112> *xyz -2 1
|113>   O   2.04500831622719     -1.66736970735333      0.98915238049675
|114>   O   3.05148002359569      0.97100191379782      0.86397102036135
|115>   N   -3.68642067510173      0.27370707678023      0.76426055932533
|116>   C   -2.17860274253721     -0.26158633006809     -1.13375339037480
|117>   C   -0.84396185236192      0.09711732451515     -0.52048305884621
|118>   C   -3.22786359534133     -0.78845990916295     -0.14625364567804
|119>   C   -0.02056784394365     -0.90357101358277      0.06870726128312
|120>   C   -0.36064428144890      1.41966028503319     -0.52648891478644
|121>   C   1.31384225961165     -0.70256944501393      0.55373068323946
|122>   C   0.92934067253038      1.70872474056965      0.03752013694052
|123>   C   1.84656594552083      0.70229255541698      0.50558421700988
|124>   H   -2.02886391103079     -1.03665520762076     -1.90635503346661
|125>   H   -2.59302557004625      0.62412683272668     -1.64290524856236
|126>   H   -2.80471646763263     -1.66403659690741      0.38565051651787
|127>   H   -4.09869008084708     -1.15136281412736     -0.71586583929577
|128>   H   -0.39493308541852     -1.93365408342772      0.10380399235223
|129>   H   -0.95241076622611      2.21962843147823     -0.97695889133384
|130>   H   1.30202398057182      2.73705380067501     -0.00135803957858
|131>   H   -2.87764531127628      0.58744326716065      1.33142468162053
|132>   H   -4.33965387412065     -0.12902197132342      1.44283786225421
|133>   Cu  -1.42737081565598      1.08811498504648      3.66984439127960
|134>   Cu  -0.40764220833537      1.06101800352666      1.61363687315076
|135> *
|136> 
|137> $new_job
|138> 
|139> ! B3LYP D3 TightSCF def2-TZVP slowconv PModel cpcm(water) opt numfreq
|140> %pal nprocs=16 end
|141> %geom maxiter=150 end
|142> %elprop Polar 1 end
|143> %base "zwitterione"
|144> *xyz 0 1
|145>   O   2.43450991500708     -2.13745678577080      1.15582492680410
|146>   C   1.78207340494618     -1.09755830124653      0.56407091176490
|147>   C   0.43534387093663     -1.15676452588701      0.15814626157475
|148>   C   -0.13058572085145     -0.06608578551048     -0.57892209380527
|149>   C   -1.55864124719162     -0.12892220411612     -1.06446292572923
|150>   C   -2.62511294311345     -0.16731748131176      0.02887220517868
|151>   N   -2.61150230494416      1.07755979107940      0.86392871762869
|152>   H   -1.73022345544140      1.12947620905341      1.46463528096524
|153>   H   -2.65269580816235      1.92598756254196      0.28334198190467
|154>   H   -3.41042637007737      1.09979458127936      1.51112481175910
|155>   C   0.68866743947902      1.03851296154222     -0.85729909921353
|156>   C   2.02975354833404      1.10825964494483     -0.43971062349239
|157>   C   2.64737191028949      0.03673493287782      0.26209582425099
|158>   O   3.87935034913508     -0.06423834146255      0.63097045573007
|159>   H   3.35386988359056     -1.73450928115483      1.23715606839358
|160>   H   -0.13987347822420     -2.07099650002301      0.32577108347042
|161>   H   -1.75451869317885      0.73098758085042     -1.72413325889540
|162>   H   -1.71754644916329     -1.03504001756551     -1.67238340233440
|163>   H   -3.62746402860688     -0.25156771695072     -0.40821065416189
|164>   H   -2.46717112347315     -1.00514149069399      0.72017962738677
|165>   H   0.26127358964327      1.87773391543804     -1.41238605442837
|166>   H   2.63412200643189      1.98374330620523     -0.68851292079098
|167>   Cu  -0.39738129103119      1.59086667066051      3.42377031217403
|168>   Cu  0.42822388896515      0.20681791092810      1.79723380288144
|169> *
|170> 
|171>                          ****END OF INPUT****
================================================================================


                 $$$$$$$$$$$$$$$$$$$$$$$$$$$$$$$$$$$$$$$$$$$$$$ 
                 $ THERE ARE  5 JOBS TO BE PROCESSED THIS RUN $
                 $$$$$$$$$$$$$$$$$$$$$$$$$$$$$$$$$$$$$$$$$$$$$$ 




                 $$$$$$$$$$$$$$$$  JOB NUMBER  1 $$$$$$$$$$$$$$


                       *****************************
                       * Geometry Optimization Run *
                       *****************************

Geometry optimization settings:
Update method            Update   .... BFGS
Choice of coordinates    CoordSys .... Z-matrix Internals
Initial Hessian          InHess   .... Almoef's Model

Convergence Tolerances:
Energy Change            TolE     ....  5.0000e-06 Eh
Max. Gradient            TolMAXG  ....  3.0000e-04 Eh/bohr
RMS Gradient             TolRMSG  ....  1.0000e-04 Eh/bohr
Max. Displacement        TolMAXD  ....  4.0000e-03 bohr
RMS Displacement         TolRMSD  ....  2.0000e-03 bohr
Strict Convergence                ....  False
------------------------------------------------------------------------------
                        ORCA OPTIMIZATION COORDINATE SETUP
------------------------------------------------------------------------------

The optimization will be done in new redundant internal coordinates
Making redundant internal coordinates   ...  (new redundants) done
Evaluating the initial hessian          ...  (Almloef) done
Evaluating the coordinates              ...  done
Calculating the B-matrix                .... done
Calculating the G-matrix                .... done
Diagonalizing the G-matrix              .... done
Small eigenvalue found = 6.954e-03
Small eigenvalue found = 1.383e-02
The first mode is                       ....   50
The number of degrees of freedom        ....   66

    -----------------------------------------------------------------
                    Redundant Internal Coordinates


    -----------------------------------------------------------------
         Definition                    Initial Value    Approx d2E/dq
    -----------------------------------------------------------------
      1. B(C   2,C   0)                  1.3923         0.619593   
      2. B(C   3,C   0)                  1.4055         0.590255   
      3. B(C   4,C   3)                  1.4005         0.601220   
      4. B(C   4,C   1)                  1.4000         0.602215   
      5. B(C   5,C   2)                  1.4102         0.580020   
      6. B(C   5,C   1)                  1.3925         0.619020   
      7. B(O   6,C   5)                  1.3700         0.602226   
      8. B(O   7,C   2)                  1.3732         0.595297   
      9. B(C   8,C   3)                  1.5088         0.403885   
     10. B(C   9,C   8)                  1.5362         0.365190   
     11. B(N  10,C   9)                  1.4859         0.393436   
     12. B(H  11,C   0)                  1.0943         0.354481   
     13. B(H  12,C   1)                  1.0915         0.358077   
     14. B(H  13,C   4)                  1.0919         0.357611   
     15. B(H  14,O   6)                  0.9782         0.486313   
     16. B(H  15,O   7)                  0.9754         0.491349   
     17. B(H  16,C   8)                  1.1016         0.345110   
     18. B(H  17,C   8)                  1.1016         0.345036   
     19. B(H  18,C   9)                  1.0989         0.348514   
     20. B(H  19,C   9)                  1.0982         0.349359   
     21. B(H  20,N  10)                  1.0278         0.405390   
     22. B(H  21,N  10)                  1.0267         0.406976   
     23. B(Cu 23,Cu 22)                  2.2975         2.281063   
     24. B(Cu 23,N  10)                  1.9823         0.642813   
     25. A(C   2,C   0,H  11)          118.8703         0.351932   
     26. A(C   3,C   0,H  11)          120.2484         0.349061   
     27. A(C   2,C   0,C   3)          120.8812         0.430197   
     28. A(C   4,C   1,C   5)          120.2134         0.431678   
     29. A(C   5,C   1,H  12)          118.8441         0.352478   
     30. A(C   4,C   1,H  12)          120.9422         0.350842   
     31. A(C   0,C   2,C   5)          120.2069         0.428849   
     32. A(C   0,C   2,O   7)          124.3607         0.428041   
     33. A(C   5,C   2,O   7)          115.4322         0.423014   
     34. A(C   4,C   3,C   8)          121.3925         0.399992   
     35. A(C   0,C   3,C   8)          120.1508         0.398699   
     36. A(C   0,C   3,C   4)          118.3917         0.427880   
     37. A(C   1,C   4,C   3)          121.0544         0.429422   
     38. A(C   3,C   4,H  13)          119.5419         0.350667   
     39. A(C   1,C   4,H  13)          119.4032         0.350765   
     40. A(C   1,C   5,O   6)          120.1501         0.428859   
     41. A(C   1,C   5,C   2)          119.2522         0.428778   
     42. A(C   2,C   5,O   6)          120.5973         0.423890   
     43. A(C   5,O   6,H  14)          107.7409         0.364075   
     44. A(C   2,O   7,H  15)          109.6907         0.363996   
     45. A(C   3,C   8,C   9)          112.5605         0.366808   
     46. A(C   3,C   8,H  17)          110.3900         0.326205   
     47. A(C   9,C   8,H  16)          108.8833         0.320871   
     48. A(C   3,C   8,H  16)          109.8157         0.326217   
     49. A(C   9,C   8,H  17)          107.7599         0.320859   
     50. A(H  16,C   8,H  17)          107.2659         0.286982   
     51. A(C   8,C   9,H  19)          110.2042         0.321514   
     52. A(N  10,C   9,H  18)          107.7551         0.323394   
     53. A(C   8,C   9,H  18)          110.0873         0.321386   
     54. A(N  10,C   9,H  19)          107.8687         0.323522   
     55. A(C   8,C   9,N  10)          113.0553         0.362892   
     56. A(H  18,C   9,H  19)          107.6871         0.287983   
     57. A(H  21,N  10,Cu 23)          108.6270         0.399427   
     58. A(H  20,N  10,Cu 23)          108.1068         0.399153   
     59. A(C   9,N  10,Cu 23)          116.8312         0.446417   
     60. A(H  20,N  10,H  21)          105.1186         0.297209   
     61. A(C   9,N  10,H  21)          108.8704         0.328938   
     62. A(C   9,N  10,H  20)          108.6606         0.328726   
     63. L(N  10,Cu 23,Cu 22,C   9, 2) 181.0179         0.778551   
     64. L(N  10,Cu 23,Cu 22,C   9, 1) 181.0341         0.778551   
     65. D(O   7,C   2,C   0,C   3)    179.7539         0.026562   
     66. D(O   7,C   2,C   0,H  11)     -0.1951         0.026562   
     67. D(C   5,C   2,C   0,C   3)     -0.0775         0.026562   
     68. D(C   5,C   2,C   0,H  11)    179.9736         0.026562   
     69. D(C   8,C   3,C   0,H  11)     -2.8447         0.023977   
     70. D(C   4,C   3,C   0,C   2)      0.0979         0.023977   
     71. D(C   8,C   3,C   0,C   2)    177.2070         0.023977   
     72. D(C   4,C   3,C   0,H  11)   -179.9538         0.023977   
     73. D(C   1,C   4,C   3,C   8)   -177.1609         0.024924   
     74. D(H  13,C   4,C   1,H  12)     -0.0275         0.025011   
     75. D(C   1,C   4,C   3,C   0)     -0.0894         0.024924   
     76. D(C   3,C   4,C   1,C   5)      0.0607         0.025011   
     77. D(H  13,C   4,C   1,C   5)    179.7911         0.025011   
     78. D(H  13,C   4,C   3,C   0)   -179.8196         0.024924   
     79. D(C   3,C   4,C   1,H  12)   -179.7580         0.025011   
     80. D(H  13,C   4,C   3,C   8)      3.1090         0.024924   
     81. D(O   6,C   5,C   2,O   7)     -0.0310         0.023114   
     82. D(C   1,C   5,C   2,O   7)   -179.7998         0.023114   
     83. D(O   6,C   5,C   1,H  12)      0.0151         0.026510   
     84. D(O   6,C   5,C   1,C   4)   -179.8073         0.026510   
     85. D(C   1,C   5,C   2,C   0)      0.0460         0.023114   
     86. D(O   6,C   5,C   2,C   0)    179.8148         0.023114   
     87. D(C   2,C   5,C   1,H  12)    179.7850         0.026510   
     88. D(C   2,C   5,C   1,C   4)     -0.0374         0.026510   
     89. D(H  14,O   6,C   5,C   2)      0.0094         0.026501   
     90. D(H  14,O   6,C   5,C   1)    179.7762         0.026501   
     91. D(H  15,O   7,C   2,C   5)    179.7659         0.025856   
     92. D(H  15,O   7,C   2,C   0)     -0.0727         0.025856   
     93. D(H  16,C   8,C   3,C   0)    161.5769         0.012096   
     94. D(C   9,C   8,C   3,C   4)    100.0786         0.012096   
     95. D(C   9,C   8,C   3,C   0)    -76.9420         0.012096   
     96. D(H  17,C   8,C   3,C   4)   -139.4700         0.012096   
     97. D(H  17,C   8,C   3,C   0)     43.5094         0.012096   
     98. D(H  16,C   8,C   3,C   4)    -21.4025         0.012096   
     99. D(H  19,C   9,C   8,H  16)    -60.2469         0.010679   
    100. D(H  19,C   9,C   8,C   3)    177.7427         0.010679   
    101. D(H  18,C   9,C   8,H  17)    -62.8493         0.010679   
    102. D(H  18,C   9,C   8,H  16)   -178.8858         0.010679   
    103. D(H  18,C   9,C   8,C   3)     59.1038         0.010679   
    104. D(N  10,C   9,C   8,H  17)    176.5846         0.010679   
    105. D(N  10,C   9,C   8,H  16)     60.5481         0.010679   
    106. D(H  19,C   9,C   8,H  17)     55.7895         0.010679   
    107. D(N  10,C   9,C   8,C   3)    -61.4622         0.010679   
    108. D(Cu 23,N  10,C   9,H  19)    -60.9796         0.014153   
    109. D(Cu 23,N  10,C   9,H  18)     55.0229         0.014153   
    110. D(Cu 23,N  10,C   9,C   8)    176.9078         0.014153   
    111. D(H  21,N  10,C   9,H  19)     62.4671         0.014153   
    112. D(H  21,N  10,C   9,H  18)    178.4697         0.014153   
    113. D(H  21,N  10,C   9,C   8)    -59.6454         0.014153   
    114. D(H  20,N  10,C   9,H  19)    176.4433         0.014153   
    115. D(H  20,N  10,C   9,H  18)    -67.5541         0.014153   
    116. D(H  20,N  10,C   9,C   8)     54.3308         0.014153   
    -----------------------------------------------------------------

Number of atoms                         .... 24
Number of degrees of freedom            .... 116

         *************************************************************
         *                GEOMETRY OPTIMIZATION CYCLE   1            *
         *************************************************************
---------------------------------
CARTESIAN COORDINATES (ANGSTROEM)
---------------------------------
  C     -0.169563   -1.057238   -0.428556
  C     -1.120496    1.566895   -0.404577
  C     -1.497669   -0.801829   -0.097896
  C      0.707329   -0.008239   -0.754192
  C      0.213674    1.302219   -0.736229
  C     -1.983349    0.522066   -0.083713
  O     -3.289694    0.782211    0.236798
  O     -2.415598   -1.770210    0.226491
  C      2.158561   -0.297413   -1.048598
  C      2.976993   -0.561117    0.224381
  N      3.001401    0.599878    1.151415
  H      0.184256   -2.092733   -0.432267
  H     -1.504342    2.588665   -0.394958
  H      0.877829    2.131218   -0.988972
  H     -3.726441   -0.072683    0.424684
  H     -1.994106   -2.648964    0.187123
  H      2.605849    0.550849   -1.590678
  H      2.249567   -1.183897   -1.696254
  H      2.558958   -1.417791    0.771136
  H      4.015348   -0.806132   -0.036241
  H      2.033299    0.877500    1.356300
  H      3.413506    1.404628    0.664960
  Cu     5.021144    0.091793    4.890004
  Cu     3.948209    0.349005    2.874777

----------------------------
CARTESIAN COORDINATES (A.U.)
----------------------------
  NO LB      ZA    FRAG     MASS         X           Y           Z
   0 C     6.0000    0    12.011   -0.320427   -1.997890   -0.809853
   1 C     6.0000    0    12.011   -2.117431    2.961002   -0.764540
   2 C     6.0000    0    12.011   -2.830183   -1.515237   -0.184997
   3 C     6.0000    0    12.011    1.336659   -0.015570   -1.425216
   4 C     6.0000    0    12.011    0.403786    2.460837   -1.391271
   5 C     6.0000    0    12.011   -3.747986    0.986561   -0.158195
   6 O     8.0000    0    15.999   -6.216621    1.478165    0.447483
   7 O     8.0000    0    15.999   -4.564819   -3.345212    0.428006
   8 C     6.0000    0    12.011    4.079089   -0.562028   -1.981564
   9 C     6.0000    0    12.011    5.625701   -1.060357    0.424018
  10 N     7.0000    0    14.007    5.671826    1.133605    2.175859
  11 H     1.0000    0     1.008    0.348193   -3.954692   -0.816866
  12 H     1.0000    0     1.008   -2.842795    4.891868   -0.746362
  13 H     1.0000    0     1.008    1.658855    4.027418   -1.868887
  14 H     1.0000    0     1.008   -7.041953   -0.137351    0.802536
  15 H     1.0000    0     1.008   -3.768313   -5.005816    0.353611
  16 H     1.0000    0     1.008    4.924342    1.040954   -3.005945
  17 H     1.0000    0     1.008    4.251066   -2.237240   -3.205456
  18 H     1.0000    0     1.008    4.835730   -2.679237    1.457235
  19 H     1.0000    0     1.008    7.587908   -1.523368   -0.068485
  20 H     1.0000    0     1.008    3.842378    1.658235    2.563036
  21 H     1.0000    0     1.008    6.450591    2.654362    1.256593
  22 Cu   29.0000    0    63.550    9.488587    0.173464    9.240768
  23 Cu   29.0000    0    63.550    7.461033    0.659524    5.432542

--------------------------------
INTERNAL COORDINATES (ANGSTROEM)
--------------------------------
 C      0   0   0     0.000000000000     0.00000000     0.00000000
 C      1   0   0     2.791221986524     0.00000000     0.00000000
 C      1   2   0     1.392276680352    60.03371424     0.00000000
 C      1   2   3     1.405480875441    60.84753132   179.94656404
 C      2   1   3     1.400020396328    59.70632073   180.00858755
 C      2   1   3     1.392528251549    60.50710088     0.02325284
 O      6   2   1     1.370015278224   120.15006386   180.20734420
 O      3   1   2     1.373165600234   124.36068376   179.80825089
 C      4   1   2     1.508764351848   120.15083541   177.15307562
 C      9   4   1     1.536178970605   112.56047238   283.05799953
 N     10   9   4     1.485899169958   113.05527969   298.53776844
 H      1   2   3     1.094281146340   178.90403141   359.84828240
 H      2   1   3     1.091533291520   179.32983818   345.47320256
 H      5   2   1     1.091887955347   119.40319765   179.77636652
 H      7   6   2     0.978208994317   107.74092956   179.77615037
 H      8   3   1     0.975404368584   109.69067227   359.92726259
 H      9   4   1     1.101573682019   109.81569005   161.57685604
 H      9   4   1     1.101632509273   110.39004824    43.50938223
 H     10   9   4     1.098901822001   110.08728384    59.10383750
 H     10   9   4     1.098242779432   110.20423368   177.74271452
 H     11  10   9     1.027751955006   108.66055658    54.33077531
 H     11  10   9     1.026688903019   108.87042191   300.35457315
 Cu    11  10   9     4.279551135798   117.38794187   176.64265794
 Cu    11  10   9     1.982261429037   116.83118261   176.90782277

---------------------------
INTERNAL COORDINATES (A.U.)
---------------------------
 C      0   0   0     0.000000000000     0.00000000     0.00000000
 C      1   0   0     5.274645133509     0.00000000     0.00000000
 C      1   2   0     2.631021628510    60.03371424     0.00000000
 C      1   2   3     2.655973941047    60.84753132   179.94656404
 C      2   1   3     2.645655130964    59.70632073   180.00858755
 C      2   1   3     2.631497029176    60.50710088     0.02325284
 O      6   2   1     2.588953675131   120.15006386   180.20734420
 O      3   1   2     2.594906920963   124.36068376   179.80825089
 C      4   1   2     2.851151425615   120.15083541   177.15307562
 C      9   4   1     2.902957547132   112.56047238   283.05799953
 N     10   9   4     2.807942493842   113.05527969   298.53776844
 H      1   2   3     2.067891680096   178.90403141   359.84828240
 H      2   1   3     2.062698987031   179.32983818   345.47320256
 H      5   2   1     2.063369204532   119.40319765   179.77636652
 H      7   6   2     1.848547100998   107.74092956   179.77615037
 H      8   3   1     1.843247126454   109.69067227   359.92726259
 H      9   4   1     2.081672575352   109.81569005   161.57685604
 H      9   4   1     2.081783742751   110.39004824    43.50938223
 H     10   9   4     2.076623491649   110.08728384    59.10383750
 H     10   9   4     2.075378081683   110.20423368   177.74271452
 H     11  10   9     1.942169728564   108.66055658    54.33077531
 H     11  10   9     1.940160851443   108.87042191   300.35457315
 Cu    11  10   9     8.087179622770   117.38794187   176.64265794
 Cu    11  10   9     3.745931226715   116.83118261   176.90782277

---------------------
BASIS SET INFORMATION
---------------------
There are 5 groups of distinct atoms

 Group   1 Type C   : 11s6p2d1f contracted to 5s3p2d1f pattern {62111/411/11/1}
 Group   2 Type O   : 11s6p2d1f contracted to 5s3p2d1f pattern {62111/411/11/1}
 Group   3 Type N   : 11s6p2d1f contracted to 5s3p2d1f pattern {62111/411/11/1}
 Group   4 Type H   : 5s1p contracted to 3s1p pattern {311/1}
 Group   5 Type Cu  : 17s11p7d1f contracted to 6s4p4d1f pattern {842111/6311/4111/1}

Atom   0C    basis set group =>   1
Atom   1C    basis set group =>   1
Atom   2C    basis set group =>   1
Atom   3C    basis set group =>   1
Atom   4C    basis set group =>   1
Atom   5C    basis set group =>   1
Atom   6O    basis set group =>   2
Atom   7O    basis set group =>   2
Atom   8C    basis set group =>   1
Atom   9C    basis set group =>   1
Atom  10N    basis set group =>   3
Atom  11H    basis set group =>   4
Atom  12H    basis set group =>   4
Atom  13H    basis set group =>   4
Atom  14H    basis set group =>   4
Atom  15H    basis set group =>   4
Atom  16H    basis set group =>   4
Atom  17H    basis set group =>   4
Atom  18H    basis set group =>   4
Atom  19H    basis set group =>   4
Atom  20H    basis set group =>   4
Atom  21H    basis set group =>   4
Atom  22Cu   basis set group =>   5
Atom  23Cu   basis set group =>   5
---------------------------------
AUXILIARY/J BASIS SET INFORMATION
---------------------------------
There are 5 groups of distinct atoms

 Group   1 Type C   : 12s5p4d2f1g contracted to 6s4p3d1f1g pattern {711111/2111/211/2/1}
 Group   2 Type O   : 12s5p4d2f1g contracted to 6s4p3d1f1g pattern {711111/2111/211/2/1}
 Group   3 Type N   : 12s5p4d2f1g contracted to 6s4p3d1f1g pattern {711111/2111/211/2/1}
 Group   4 Type H   : 5s2p1d contracted to 3s1p1d pattern {311/2/1}
 Group   5 Type Cu  : 19s5p5d3f3g contracted to 8s5p4d3f3g pattern {121111111/11111/2111/111/111}

Atom   0C    basis set group =>   1
Atom   1C    basis set group =>   1
Atom   2C    basis set group =>   1
Atom   3C    basis set group =>   1
Atom   4C    basis set group =>   1
Atom   5C    basis set group =>   1
Atom   6O    basis set group =>   2
Atom   7O    basis set group =>   2
Atom   8C    basis set group =>   1
Atom   9C    basis set group =>   1
Atom  10N    basis set group =>   3
Atom  11H    basis set group =>   4
Atom  12H    basis set group =>   4
Atom  13H    basis set group =>   4
Atom  14H    basis set group =>   4
Atom  15H    basis set group =>   4
Atom  16H    basis set group =>   4
Atom  17H    basis set group =>   4
Atom  18H    basis set group =>   4
Atom  19H    basis set group =>   4
Atom  20H    basis set group =>   4
Atom  21H    basis set group =>   4
Atom  22Cu   basis set group =>   5
Atom  23Cu   basis set group =>   5
No protocol specified


           ************************************************************
           *        Program running with 16 parallel MPI-processes    *
           *              working on a common directory               *
           ************************************************************
------------------------------------------------------------------------------
                           ORCA GTO INTEGRAL CALCULATION
                           -- RI-GTO INTEGRALS CHOSEN --
------------------------------------------------------------------------------
------------------------------------------------------------------------------
                   ___                                                        
                  /   \      - P O W E R E D   B Y -                         
                 /     \                                                     
                 |  |  |   _    _      __       _____    __    __             
                 |  |  |  | |  | |    /  \     |  _  \  |  |  /  |          
                  \  \/   | |  | |   /    \    | | | |  |  | /  /          
                 / \  \   | |__| |  /  /\  \   | |_| |  |  |/  /          
                |  |  |   |  __  | /  /__\  \  |    /   |      \           
                |  |  |   | |  | | |   __   |  |    \   |  |\   \          
                \     /   | |  | | |  |  |  |  | |\  \  |  | \   \       
                 \___/    |_|  |_| |__|  |__|  |_| \__\ |__|  \__/        
                                                                              
                      - O R C A' S   B I G   F R I E N D -                    
                                      &                                       
                       - I N T E G R A L  F E E D E R -                       
                                                                              
 v1 FN, 2020, v2 2021                                                         
------------------------------------------------------------------------------


Reading SHARK input file neutral.SHARKINP.tmp ... ok
----------------------
SHARK INTEGRAL PACKAGE
----------------------

Number of atoms                             ...     24
Number of basis functions                   ...    497
Number of shells                            ...    195
Maximum angular momentum                    ...      3
Integral batch strategy                     ... SHARK/LIBINT Hybrid
RI-J (if used) integral strategy            ... SPLIT-RIJ (Revised 2003 algorithm where possible)
Printlevel                                  ...      1
Contraction scheme used                     ... SEGMENTED contraction
Coulomb Range Separation                    ... NOT USED
Exchange Range Separation                   ... NOT USED
Finite Nucleus Model                        ... NOT USED
Auxiliary Coulomb fitting basis             ... AVAILABLE
   # of basis functions in Aux-J            ...    842
   # of shells in Aux-J                     ...    266
   Maximum angular momentum in Aux-J        ...      4
Auxiliary J/K fitting basis                 ... NOT available
Auxiliary Correlation fitting basis         ... NOT available
Auxiliary 'external' fitting basis          ... NOT available
Integral threshold                          ...     2.500000e-11
Primitive cut-off                           ...     2.500000e-12
Primitive pair pre-selection threshold      ...     2.500000e-12

Calculating pre-screening integrals         ... done (  0.1 sec) Dimension = 195
Organizing shell pair data                  ... done (  0.4 sec)
Shell pair information
Total number of shell pairs                 ...     19110
Shell pairs after pre-screening             ...     14631
Total number of primitive shell pairs       ...     64654
Primitive shell pairs kept                  ...     32867
          la=0 lb=0:   3864 shell pairs
          la=1 lb=0:   4068 shell pairs
          la=1 lb=1:   1105 shell pairs
          la=2 lb=0:   2279 shell pairs
          la=2 lb=1:   1202 shell pairs
          la=2 lb=2:    347 shell pairs
          la=3 lb=0:    933 shell pairs
          la=3 lb=1:    496 shell pairs
          la=3 lb=2:    274 shell pairs
          la=3 lb=3:     63 shell pairs

Calculating one electron integrals          ... done (  0.0 sec)
Calculating RI/J V-Matrix + Cholesky decomp.... done (  0.0 sec)
Calculating Nuclear repulsion               ... done (  0.0 sec) ENN=   1252.376807188785 Eh

SHARK setup successfully completed in   0.9 seconds

Maximum memory used throughout the entire GTOINT-calculation: 31.0 MB
No protocol specified


           ************************************************************
           *        Program running with 16 parallel MPI-processes    *
           *              working on a common directory               *
           ************************************************************
-------------------------------------------------------------------------------
                                 ORCA SCF
-------------------------------------------------------------------------------

------------
SCF SETTINGS
------------
Hamiltonian:
 Density Functional     Method          .... DFT(GTOs)
 Exchange Functional    Exchange        .... B88
   X-Alpha parameter    XAlpha          ....  0.666667
   Becke's b parameter  XBeta           ....  0.004200
 Correlation Functional Correlation     .... LYP
 LDA part of GGA corr.  LDAOpt          .... VWN-5
 Gradients option       PostSCFGGA      .... off
 Hybrid DFT is turned on
   Fraction HF Exchange ScalHFX         ....  0.200000
   Scaling of DF-GGA-X  ScalDFX         ....  0.720000
   Scaling of DF-GGA-C  ScalDFC         ....  0.810000
   Scaling of DF-LDA-C  ScalLDAC        ....  1.000000
   Perturbative correction              ....  0.000000
   Density functional embedding theory  .... OFF
   NL short-range parameter             ....  4.800000
 RI-approximation to the Coulomb term is turned on
   Number of AuxJ basis functions       .... 842
   RIJ-COSX (HFX calculated with COS-X)).... on


General Settings:
 Integral files         IntName         .... neutral
 Hartree-Fock type      HFTyp           .... RHF
 Total Charge           Charge          ....    0
 Multiplicity           Mult            ....    1
 Number of Electrons    NEL             ....  140
 Basis Dimension        Dim             ....  497
 Nuclear Repulsion      ENuc            ....   1252.3768071888 Eh

Convergence Acceleration:
 DIIS                   CNVDIIS         .... on
   Start iteration      DIISMaxIt       ....     0
   Startup error        DIISStart       ....  0.200000
   # of expansion vecs  DIISMaxEq       ....     5
   Bias factor          DIISBfac        ....   1.050
   Max. coefficient     DIISMaxC        ....  10.000
 Trust-Rad. Augm. Hess. CNVTRAH         .... auto
   Auto Start mean grad. ratio tolernc. ....  1.125000
   Auto Start start iteration           ....    20
   Auto Start num. interpolation iter.  ....    10
   Max. Number of Micro iterations      ....    16
   Max. Number of Macro iterations      .... Maxiter - #DIIS iter
   Number of Davidson start vectors     ....     2
   Converg. threshold I  (grad. norm)   ....   1.000e-05
   Converg. threshold II (energy diff.) ....   1.000e-08
   Grad. Scal. Fac. for Micro threshold ....   0.100
   Minimum threshold for Micro iter.    ....   0.010
   NR start threshold (gradient norm)   ....   0.001
   Initial trust radius                 ....   0.400
   Minimum AH scaling param. (alpha)    ....   1.000
   Maximum AH scaling param. (alpha)    .... 1000.000
   Orbital update algorithm             .... Taylor
   White noise on init. David. guess    .... on
   Maximum white noise                  ....   0.010
   Quad. conv. algorithm                .... NR
 SOSCF                  CNVSOSCF        .... off
 Level Shifting         CNVShift        .... on
   Level shift para.    LevelShift      ....    0.2500
   Turn off err/grad.   ShiftErr        ....    0.0000
 Zerner damping         CNVZerner       .... off
 Static damping         CNVDamp         .... on
   Fraction old density DampFac         ....    0.8500
   Max. Damping (<1)    DampMax         ....    0.9800
   Min. Damping (>=0)   DampMin         ....    0.0000
   Turn off err/grad.   DampErr         ....    0.0300
 Fernandez-Rico         CNVRico         .... off

SCF Procedure:
 Maximum # iterations   MaxIter         ....   125
 SCF integral mode      SCFMode         .... Direct
   Integral package                     .... SHARK and LIBINT hybrid scheme
 Reset frequency        DirectResetFreq ....    20
 Integral Threshold     Thresh          ....  2.500e-11 Eh
 Primitive CutOff       TCut            ....  2.500e-12 Eh

Convergence Tolerance:
 Convergence Check Mode ConvCheckMode   .... Total+1el-Energy
 Convergence forced     ConvForced      .... 0
 Energy Change          TolE            ....  1.000e-08 Eh
 1-El. energy change                    ....  1.000e-05 Eh
 DIIS Error             TolErr          ....  5.000e-07


Diagonalization of the overlap matrix:
Smallest eigenvalue                        ... 9.039e-06
Time for diagonalization                   ...    0.059 sec
Threshold for overlap eigenvalues          ... 1.000e-08
Number of eigenvalues below threshold      ... 0
Time for construction of square roots      ...    0.044 sec
Total time needed                          ...    0.105 sec

Time for model grid setup =    0.313 sec

------------------------------
INITIAL GUESS: MODEL POTENTIAL
------------------------------
Loading Hartree-Fock densities                     ... done
Calculating cut-offs                               ... done
Initializing the effective Hamiltonian             ... done
Setting up the integral package (SHARK)            ... done
Starting the Coulomb interaction                   ... done (   0.2 sec)
Reading the grid                                   ... done
Mapping shells                                     ... done
Starting the XC term evaluation                    ... done (   0.1 sec)
  promolecular density results
     # of electrons  =    139.983661144
     EX              =   -199.013874974
     EC              =     -5.545553150
     EX+EC           =   -204.559428124
Transforming the Hamiltonian                       ... done (   0.0 sec)
Diagonalizing the Hamiltonian                      ... done (   0.1 sec)
Back transforming the eigenvectors                 ... done (   0.0 sec)
Now organizing SCF variables                       ... done
                      ------------------
                      INITIAL GUESS DONE (   0.8 sec)
                      ------------------
-------------------
DFT GRID GENERATION
-------------------

General Integration Accuracy     IntAcc      ... 4.388
Radial Grid Type                 RadialGrid  ... OptM3 with GC (2021)
Angular Grid (max. ang.)         AngularGrid ... 4 (Lebedev-302)
Angular grid pruning method      GridPruning ... 4 (adaptive)
Weight generation scheme         WeightScheme... Becke
Basis function cutoff            BFCut       ... 1.0000e-11
Integration weight cutoff        WCut        ... 1.0000e-14
Angular grids for H and He will be reduced by one unit
Partially contracted basis set               ... off
Rotationally invariant grid construction     ... off

Total number of grid points                  ...   123532
Total number of batches                      ...     1945
Average number of points per batch           ...       63
Average number of grid points per atom       ...     5147
Time for grid setup =    1.242 sec

--------------------
COSX GRID GENERATION
--------------------

GRIDX 1
-------
General Integration Accuracy     IntAcc      ... 3.816
Radial Grid Type                 RadialGrid  ... OptM3 with GC (2021)
Angular Grid (max. ang.)         AngularGrid ... 1 (Lebedev-50)
Angular grid pruning method      GridPruning ... 4 (adaptive)
Weight generation scheme         WeightScheme... Becke
Basis function cutoff            BFCut       ... 1.0000e-11
Integration weight cutoff        WCut        ... 1.0000e-14
Angular grids for H and He will be reduced by one unit
Partially contracted basis set               ... on
Rotationally invariant grid construction     ... off

Total number of grid points                  ...    15337
Total number of batches                      ...      253
Average number of points per batch           ...       60
Average number of grid points per atom       ...      639
UseSFitting                                  ... on

GRIDX 2
-------
General Integration Accuracy     IntAcc      ... 4.020
Radial Grid Type                 RadialGrid  ... OptM3 with GC (2021)
Angular Grid (max. ang.)         AngularGrid ... 2 (Lebedev-110)
Angular grid pruning method      GridPruning ... 4 (adaptive)
Weight generation scheme         WeightScheme... Becke
Basis function cutoff            BFCut       ... 1.0000e-11
Integration weight cutoff        WCut        ... 1.0000e-14
Angular grids for H and He will be reduced by one unit
Partially contracted basis set               ... on
Rotationally invariant grid construction     ... off

Total number of grid points                  ...    33031
Total number of batches                      ...      527
Average number of points per batch           ...       62
Average number of grid points per atom       ...     1376
UseSFitting                                  ... on

GRIDX 3
-------
General Integration Accuracy     IntAcc      ... 4.338
Radial Grid Type                 RadialGrid  ... OptM3 with GC (2021)
Angular Grid (max. ang.)         AngularGrid ... 3 (Lebedev-194)
Angular grid pruning method      GridPruning ... 4 (adaptive)
Weight generation scheme         WeightScheme... Becke
Basis function cutoff            BFCut       ... 1.0000e-11
Integration weight cutoff        WCut        ... 1.0000e-14
Angular grids for H and He will be reduced by one unit
Partially contracted basis set               ... on
Rotationally invariant grid construction     ... off

Total number of grid points                  ...    72755
Total number of batches                      ...     1147
Average number of points per batch           ...       63
Average number of grid points per atom       ...     3031
UseSFitting                                  ... on

Time for X-Grid setup             =    1.133 sec


--------------------
CPCM SOLVATION MODEL
--------------------
CPCM parameters:
  Epsilon                                         ...      80.4000
  Refrac                                          ...       1.3300
  Rsolv                                           ...       1.3000
  Surface type                                    ... GAUSSIAN VDW
  Epsilon function type                           ...         CPCM
Radii:
 Radius for C  used is    3.8550 Bohr (=   2.0400 Ang.)
 Radius for O  used is    3.4469 Bohr (=   1.8240 Ang.)
 Radius for N  used is    3.5149 Bohr (=   1.8600 Ang.)
 Radius for H  used is    2.4944 Bohr (=   1.3200 Ang.)
 Radius for Cu used is    3.1747 Bohr (=   1.6800 Ang.)
Calculating surface                               ...        done! (  0.0s)
GEPOL surface points                              ...         1414
GEPOL Volume                                      ...    1494.6108
GEPOL Surface-area                                ...     862.9312
Calculating surface distance matrix               ...        done! (  0.0s)
Performing Cholesky decomposition & store         ...        done! (  0.2s)
Overall time for CPCM initialization              ...                 0.2s
--------------
SCF ITERATIONS
--------------
ITER       Energy         Delta-E        Max-DP      RMS-DP      [F,P]     Damp
               ***  Starting incremental Fock matrix formation  ***
  0  -3797.1480912145   0.000000000000 0.06752680  0.00064811  0.2327962 0.8500
  1  -3797.2621288292  -0.114037614721 0.11139262  0.00085416  0.1681783 0.8500
                               ***Turning on DIIS***
  2  -3797.3284613487  -0.066332519504 0.09211413  0.00070783  0.1104359 0.8500
  3  -3797.3697594291  -0.041298080390 0.04289898  0.00038178  0.0710437 0.8500
  4  -3797.4007381977  -0.030978768612 0.02424102  0.00020902  0.0535222 0.8500
  5  -3797.4250133321  -0.024275134405 0.02100481  0.00013998  0.0438878 0.8500
  6  -3797.4448079429  -0.019794610763 0.01794476  0.00010936  0.0368635 0.8500
  7  -3797.4612586685  -0.016450725562 0.01546538  0.00009217  0.0311677 0.8500
  8  -3797.4750971221  -0.013838453644 0.08751506  0.00051888  0.0260442 0.0000
  9  -3797.5503785647  -0.075281442608 0.00346200  0.00004696  0.0062719 0.0000
 10  -3797.5502910117   0.000087553010 0.00231737  0.00002447  0.0112212 0.0000
 11  -3797.5504693839  -0.000178372210 0.00054764  0.00000919  0.0013240 0.0000
 12  -3797.5504780317  -0.000008647813 0.00052796  0.00000439  0.0002154 0.0000
               *** Restarting incremental Fock matrix formation ***
                                   *** Resetting DIIS ***
 13  -3797.5504714079   0.000006623853 0.00161686  0.00001577  0.0002713 0.0000
 14  -3797.5504714267  -0.000000018788 0.00033421  0.00000390  0.0005111 0.0000
 15  -3797.5504718641  -0.000000437441 0.00017479  0.00000189  0.0000705 0.0000
 16  -3797.5504719346  -0.000000070489 0.00014520  0.00000164  0.0000541 0.0000
 17  -3797.5504719638  -0.000000029182 0.00011844  0.00000143  0.0000395 0.0000
 18  -3797.5504719804  -0.000000016580 0.00007876  0.00000106  0.0000325 0.0000
 19  -3797.5504719857  -0.000000005324 0.00010894  0.00000116  0.0000162 0.0000
 20  -3797.5504719823   0.000000003431 0.00013070  0.00000123  0.0000112 0.0000
 21  -3797.5504719736   0.000000008672 0.00002654  0.00000041  0.0000076 0.0000
 22  -3797.5504719707   0.000000002837 0.00004864  0.00000071  0.0000050 0.0000
 23  -3797.5504719591   0.000000011637 0.00004355  0.00000048  0.0000039 0.0000
 24  -3797.5504719288   0.000000030261 0.00003727  0.00000039  0.0000044 0.0000
 25  -3797.5504719131   0.000000015745 0.00002175  0.00000018  0.0000022 0.0000
 26  -3797.5504719027   0.000000010366 0.00000951  0.00000015  0.0000014 0.0000
                            ***DIIS convergence achieved***

               *****************************************************
               *                     SUCCESS                       *
               *           SCF CONVERGED AFTER  27 CYCLES          *
               *****************************************************

Old exchange energy                            =    -39.920708482 Eh
New exchange energy                            =    -39.920678787 Eh
Exchange energy change after final integration =      0.000029695 Eh
Total energy after final integration           =  -3797.550442201 Eh
Final COS-X integration done in                =     9.756 sec

----------------
TOTAL SCF ENERGY
----------------

Total Energy       :        -3797.55044220 Eh         -103336.60106 eV

Components:
Nuclear Repulsion  :         1252.37680719 Eh           34078.90546 eV
Electronic Energy  :        -5049.92724939 Eh         -137415.50653 eV
One Electron Energy:        -7772.68457908 Eh         -211505.50013 eV
Two Electron Energy:         2722.75732969 Eh           74089.99360 eV
Max COSX asymmetry :            0.00002501 Eh               0.00068 eV
CPCM Dielectric    :           -0.03102924 Eh              -0.84435 eV

Virial components:
Potential Energy   :        -7587.91634018 Eh         -206477.70074 eV
Kinetic Energy     :         3790.36589798 Eh          103141.09968 eV
Virial Ratio       :            2.00189548


DFT components:
N(Alpha)           :       69.999892112393 electrons
N(Beta)            :       69.999892112393 electrons
N(Total)           :      139.999784224786 electrons
E(X)               :     -159.254170830124 Eh       
E(C)               :       -6.507724873662 Eh       
E(XC)              :     -165.761895703786 Eh       
DFET-embed. en.    :        0.000000000000 Eh       
CPCM Solvation Model Properties:
Surface-charge          :           -0.09842270
Charge-correction       :            0.00107026 Eh               0.02912 eV
Free-energy (cav+disp)  :  This term is not implemented in the current solvation scheme

---------------
SCF CONVERGENCE
---------------

  Last Energy change         ...    6.6002e-09  Tolerance :   1.0000e-08
  Last MAX-Density change    ...    0.0000e+00  Tolerance :   1.0000e-07
  Last RMS-Density change    ...    0.0000e+00  Tolerance :   5.0000e-09
  Last DIIS Error            ...    8.3200e-07  Tolerance :   5.0000e-07

             **** THE GBW FILE WAS UPDATED (neutral.gbw) ****
             **** DENSITY neutral.scfp WAS UPDATED ****
             **** ENERGY FILE WAS UPDATED (neutral.en.tmp) ****
             **** THE GBW FILE WAS UPDATED (neutral.gbw) ****
             **** DENSITY neutral.scfp WAS UPDATED ****
----------------
ORBITAL ENERGIES
----------------

  NO   OCC          E(Eh)            E(eV) 
   0   2.0000    -322.961433     -8788.2274 
   1   2.0000    -322.948126     -8787.8653 
   2   2.0000     -38.758249     -1054.6656 
   3   2.0000     -38.742349     -1054.2329 
   4   2.0000     -33.962752      -924.1735 
   5   2.0000     -33.962327      -924.1619 
   6   2.0000     -33.962311      -924.1615 
   7   2.0000     -33.946612      -923.7343 
   8   2.0000     -33.946579      -923.7334 
   9   2.0000     -33.946570      -923.7331 
  10   2.0000     -19.163551      -521.4667 
  11   2.0000     -19.156396      -521.2720 
  12   2.0000     -14.337590      -390.1456 
  13   2.0000     -10.237195      -278.5682 
  14   2.0000     -10.233387      -278.4646 
  15   2.0000     -10.201512      -277.5973 
  16   2.0000     -10.179654      -277.0025 
  17   2.0000     -10.174680      -276.8671 
  18   2.0000     -10.173346      -276.8308 
  19   2.0000     -10.171658      -276.7849 
  20   2.0000     -10.170095      -276.7424 
  21   2.0000      -4.246628      -115.5566 
  22   2.0000      -4.230071      -115.1061 
  23   2.0000      -2.742211       -74.6194 
  24   2.0000      -2.738967       -74.5311 
  25   2.0000      -2.738904       -74.5294 
  26   2.0000      -2.725330       -74.1600 
  27   2.0000      -2.722180       -74.0743 
  28   2.0000      -2.722166       -74.0739 
  29   2.0000      -1.074624       -29.2420 
  30   2.0000      -1.047554       -28.5054 
  31   2.0000      -0.908800       -24.7297 
  32   2.0000      -0.852521       -23.1983 
  33   2.0000      -0.774294       -21.0696 
  34   2.0000      -0.742236       -20.1973 
  35   2.0000      -0.711186       -19.3523 
  36   2.0000      -0.640098       -17.4180 
  37   2.0000      -0.630053       -17.1446 
  38   2.0000      -0.581508       -15.8236 
  39   2.0000      -0.548950       -14.9377 
  40   2.0000      -0.539663       -14.6850 
  41   2.0000      -0.513578       -13.9752 
  42   2.0000      -0.485231       -13.2038 
  43   2.0000      -0.460869       -12.5409 
  44   2.0000      -0.443916       -12.0796 
  45   2.0000      -0.434307       -11.8181 
  46   2.0000      -0.431145       -11.7321 
  47   2.0000      -0.430335       -11.7100 
  48   2.0000      -0.418201       -11.3798 
  49   2.0000      -0.404533       -11.0079 
  50   2.0000      -0.380147       -10.3443 
  51   2.0000      -0.375682       -10.2228 
  52   2.0000      -0.363275        -9.8852 
  53   2.0000      -0.345632        -9.4051 
  54   2.0000      -0.342749        -9.3267 
  55   2.0000      -0.335812        -9.1379 
  56   2.0000      -0.320162        -8.7120 
  57   2.0000      -0.245360        -6.6766 
  58   2.0000      -0.243979        -6.6390 
  59   2.0000      -0.243872        -6.6361 
  60   2.0000      -0.234735        -6.3875 
  61   2.0000      -0.233105        -6.3431 
  62   2.0000      -0.233050        -6.3416 
  63   2.0000      -0.216483        -5.8908 
  64   2.0000      -0.215945        -5.8762 
  65   2.0000      -0.215924        -5.8756 
  66   2.0000      -0.209502        -5.7008 
  67   2.0000      -0.209250        -5.6940 
  68   2.0000      -0.203720        -5.5435 
  69   2.0000      -0.180783        -4.9194 
  70   0.0000      -0.023179        -0.6307 
  71   0.0000      -0.011782        -0.3206 
  72   0.0000       0.003332         0.0907 
  73   0.0000       0.033110         0.9010 
  74   0.0000       0.038861         1.0575 
  75   0.0000       0.041790         1.1372 
  76   0.0000       0.049982         1.3601 
  77   0.0000       0.062259         1.6942 
  78   0.0000       0.071406         1.9430 
  79   0.0000       0.077505         2.1090 
  80   0.0000       0.084388         2.2963 
  81   0.0000       0.091433         2.4880 
  82   0.0000       0.105206         2.8628 
  83   0.0000       0.107321         2.9203 
  84   0.0000       0.118155         3.2152 
  85   0.0000       0.123968         3.3733 
  86   0.0000       0.127157         3.4601 
  87   0.0000       0.139233         3.7887 
  88   0.0000       0.142488         3.8773 
  89   0.0000       0.146772         3.9939 
  90   0.0000       0.153644         4.1809 
  91   0.0000       0.160526         4.3681 
  92   0.0000       0.162466         4.4209 
  93   0.0000       0.172029         4.6811 
  94   0.0000       0.180138         4.9018 
  95   0.0000       0.186495         5.0748 
  96   0.0000       0.190044         5.1714 
  97   0.0000       0.197799         5.3824 
  98   0.0000       0.204678         5.5696 
  99   0.0000       0.216044         5.8789 
 100   0.0000       0.221993         6.0407 
 101   0.0000       0.231421         6.2973 
 102   0.0000       0.238865         6.4998 
 103   0.0000       0.244354         6.6492 
 104   0.0000       0.254575         6.9273 
 105   0.0000       0.261515         7.1162 
 106   0.0000       0.269332         7.3289 
 107   0.0000       0.272482         7.4146 
 108   0.0000       0.274875         7.4797 
 109   0.0000       0.278080         7.5670 
 110   0.0000       0.283515         7.7148 
 111   0.0000       0.289257         7.8711 
 112   0.0000       0.303175         8.2498 
 113   0.0000       0.309591         8.4244 
 114   0.0000       0.313407         8.5282 
 115   0.0000       0.327961         8.9243 
 116   0.0000       0.330353         8.9894 
 117   0.0000       0.340737         9.2719 
 118   0.0000       0.348481         9.4827 
 119   0.0000       0.352608         9.5950 
 120   0.0000       0.354866         9.6564 
 121   0.0000       0.359754         9.7894 
 122   0.0000       0.364662         9.9229 
 123   0.0000       0.368033        10.0147 
 124   0.0000       0.379600        10.3294 
 125   0.0000       0.385063        10.4781 
 126   0.0000       0.397527        10.8173 
 127   0.0000       0.414624        11.2825 
 128   0.0000       0.416961        11.3461 
 129   0.0000       0.425108        11.5678 
 130   0.0000       0.426994        11.6191 
 131   0.0000       0.439800        11.9676 
 132   0.0000       0.442646        12.0450 
 133   0.0000       0.445071        12.1110 
 134   0.0000       0.451859        12.2957 
 135   0.0000       0.458634        12.4801 
 136   0.0000       0.460724        12.5369 
 137   0.0000       0.469685        12.7808 
 138   0.0000       0.480834        13.0842 
 139   0.0000       0.485715        13.2170 
 140   0.0000       0.495175        13.4744 
 141   0.0000       0.499292        13.5864 
 142   0.0000       0.505374        13.7519 
 143   0.0000       0.514423        13.9981 
 144   0.0000       0.523372        14.2417 
 145   0.0000       0.533126        14.5071 
 146   0.0000       0.546105        14.8603 
 147   0.0000       0.559263        15.2183 
 148   0.0000       0.569940        15.5089 
 149   0.0000       0.578658        15.7461 
 150   0.0000       0.582779        15.8582 
 151   0.0000       0.602951        16.4071 
 152   0.0000       0.614640        16.7252 
 153   0.0000       0.617952        16.8153 
 154   0.0000       0.626640        17.0517 
 155   0.0000       0.634772        17.2730 
 156   0.0000       0.644688        17.5429 
 157   0.0000       0.646461        17.5911 
 158   0.0000       0.653065        17.7708 
 159   0.0000       0.680316        18.5123 
 160   0.0000       0.693310        18.8659 
 161   0.0000       0.696458        18.9516 
 162   0.0000       0.735511        20.0143 
 163   0.0000       0.739753        20.1297 
 164   0.0000       0.745738        20.2926 
 165   0.0000       0.764899        20.8140 
 166   0.0000       0.768670        20.9166 
 167   0.0000       0.783071        21.3085 
 168   0.0000       0.792188        21.5565 
 169   0.0000       0.804263        21.8851 
 170   0.0000       0.822302        22.3760 
 171   0.0000       0.834233        22.7006 
 172   0.0000       0.837611        22.7926 
 173   0.0000       0.843851        22.9624 
 174   0.0000       0.856876        23.3168 
 175   0.0000       0.871909        23.7259 
 176   0.0000       0.874310        23.7912 
 177   0.0000       0.882036        24.0014 
 178   0.0000       0.886104        24.1121 
 179   0.0000       0.895746        24.3745 
 180   0.0000       0.899648        24.4807 
 181   0.0000       0.905496        24.6398 
 182   0.0000       0.909680        24.7537 
 183   0.0000       0.937847        25.5201 
 184   0.0000       0.943300        25.6685 
 185   0.0000       0.969586        26.3838 
 186   0.0000       0.977985        26.6123 
 187   0.0000       0.981103        26.6972 
 188   0.0000       1.011224        27.5168 
 189   0.0000       1.017771        27.6950 
 190   0.0000       1.028139        27.9771 
 191   0.0000       1.047207        28.4960 
 192   0.0000       1.055018        28.7085 
 193   0.0000       1.075954        29.2782 
 194   0.0000       1.090069        29.6623 
 195   0.0000       1.110025        30.2053 
 196   0.0000       1.111884        30.2559 
 197   0.0000       1.133622        30.8474 
 198   0.0000       1.134981        30.8844 
 199   0.0000       1.157956        31.5096 
 200   0.0000       1.171778        31.8857 
 201   0.0000       1.193941        32.4888 
 202   0.0000       1.200460        32.6662 
 203   0.0000       1.216661        33.1070 
 204   0.0000       1.240475        33.7551 
 205   0.0000       1.241451        33.7816 
 206   0.0000       1.259252        34.2660 
 207   0.0000       1.263184        34.3730 
 208   0.0000       1.280361        34.8404 
 209   0.0000       1.308827        35.6150 
 210   0.0000       1.317159        35.8417 
 211   0.0000       1.333837        36.2955 
 212   0.0000       1.336910        36.3792 
 213   0.0000       1.356950        36.9245 
 214   0.0000       1.358909        36.9778 
 215   0.0000       1.380277        37.5593 
 216   0.0000       1.391445        37.8631 
 217   0.0000       1.407768        38.3073 
 218   0.0000       1.418073        38.5877 
 219   0.0000       1.447363        39.3847 
 220   0.0000       1.457901        39.6715 
 221   0.0000       1.477479        40.2042 
 222   0.0000       1.491514        40.5862 
 223   0.0000       1.505960        40.9793 
 224   0.0000       1.517644        41.2972 
 225   0.0000       1.533303        41.7233 
 226   0.0000       1.552150        42.2362 
 227   0.0000       1.567467        42.6529 
 228   0.0000       1.588189        43.2168 
 229   0.0000       1.600349        43.5477 
 230   0.0000       1.607467        43.7414 
 231   0.0000       1.611785        43.8589 
 232   0.0000       1.630908        44.3793 
 233   0.0000       1.635624        44.5076 
 234   0.0000       1.647944        44.8428 
 235   0.0000       1.673977        45.5512 
 236   0.0000       1.681746        45.7626 
 237   0.0000       1.708578        46.4928 
 238   0.0000       1.724676        46.9308 
 239   0.0000       1.729624        47.0655 
 240   0.0000       1.735567        47.2272 
 241   0.0000       1.753125        47.7049 
 242   0.0000       1.758170        47.8422 
 243   0.0000       1.787129        48.6303 
 244   0.0000       1.809130        49.2289 
 245   0.0000       1.818078        49.4724 
 246   0.0000       1.834982        49.9324 
 247   0.0000       1.844492        50.1912 
 248   0.0000       1.863823        50.7172 
 249   0.0000       1.868200        50.8363 
 250   0.0000       1.877989        51.1027 
 251   0.0000       1.892048        51.4852 
 252   0.0000       1.916049        52.1383 
 253   0.0000       1.933997        52.6267 
 254   0.0000       1.949302        53.0432 
 255   0.0000       1.954648        53.1887 
 256   0.0000       1.978518        53.8382 
 257   0.0000       1.996068        54.3158 
 258   0.0000       2.016634        54.8754 
 259   0.0000       2.019728        54.9596 
 260   0.0000       2.044529        55.6344 
 261   0.0000       2.066944        56.2444 
 262   0.0000       2.076134        56.4945 
 263   0.0000       2.089670        56.8628 
 264   0.0000       2.100137        57.1476 
 265   0.0000       2.120109        57.6911 
 266   0.0000       2.133513        58.0558 
 267   0.0000       2.149534        58.4918 
 268   0.0000       2.160992        58.8036 
 269   0.0000       2.167457        58.9795 
 270   0.0000       2.168218        59.0002 
 271   0.0000       2.182531        59.3897 
 272   0.0000       2.206688        60.0470 
 273   0.0000       2.222240        60.4702 
 274   0.0000       2.234872        60.8139 
 275   0.0000       2.248300        61.1794 
 276   0.0000       2.261920        61.5500 
 277   0.0000       2.278059        61.9891 
 278   0.0000       2.307374        62.7868 
 279   0.0000       2.309272        62.8385 
 280   0.0000       2.329584        63.3912 
 281   0.0000       2.332384        63.4674 
 282   0.0000       2.349889        63.9437 
 283   0.0000       2.354244        64.0622 
 284   0.0000       2.358383        64.1749 
 285   0.0000       2.384557        64.8871 
 286   0.0000       2.403925        65.4141 
 287   0.0000       2.427644        66.0596 
 288   0.0000       2.435789        66.2812 
 289   0.0000       2.453965        66.7758 
 290   0.0000       2.468323        67.1665 
 291   0.0000       2.493416        67.8493 
 292   0.0000       2.502391        68.0935 
 293   0.0000       2.522084        68.6294 
 294   0.0000       2.530811        68.8669 
 295   0.0000       2.537713        69.0547 
 296   0.0000       2.550599        69.4053 
 297   0.0000       2.565592        69.8133 
 298   0.0000       2.604082        70.8607 
 299   0.0000       2.624465        71.4153 
 300   0.0000       2.633750        71.6680 
 301   0.0000       2.646048        72.0026 
 302   0.0000       2.655398        72.2571 
 303   0.0000       2.667003        72.5728 
 304   0.0000       2.672245        72.7155 
 305   0.0000       2.675766        72.8113 
 306   0.0000       2.689724        73.1911 
 307   0.0000       2.716839        73.9289 
 308   0.0000       2.720828        74.0375 
 309   0.0000       2.736928        74.4756 
 310   0.0000       2.746514        74.7364 
 311   0.0000       2.753204        74.9185 
 312   0.0000       2.780094        75.6502 
 313   0.0000       2.790253        75.9266 
[...]
  18 H     1.0000    0     1.008   -3.692949    4.574558   -0.970100
  19 H     1.0000    0     1.008    5.007145   -1.147824    2.950704
  20 H     1.0000    0     1.008    3.929444    1.906992    3.675255
  21 H     1.0000    0     1.008    4.867485    3.220566   -0.855058
  22 H     1.0000    0     1.008    7.519689    2.410181    1.023491
  23 Cu   29.0000    0    63.550    0.946699   -3.045981   -3.081788
  24 Cu   29.0000    0    63.550    2.954751   -2.496024   -6.895169

--------------------------------
INTERNAL COORDINATES (ANGSTROEM)
--------------------------------
 C      0   0   0     0.000000000000     0.00000000     0.00000000
 C      1   0   0     2.784244637235     0.00000000     0.00000000
 C      1   2   0     1.394416384432    60.40635235     0.00000000
 C      1   2   3     1.407375352922    59.69418268   180.11942342
 C      2   1   3     1.396315629855    61.14050528   179.88033493
 C      2   1   3     1.388726919747    60.09516360   359.73802595
 O      3   1   2     1.353493136876   119.48473370   180.93399994
 O      6   2   1     1.358930935788   123.96805861   179.86817278
 C      5   2   1     1.508495786404   120.32627178   179.94938792
 C      9   5   2     1.525358004488   114.61915788   293.59283751
 N     10   9   5     1.501260028935   112.14808945   289.40454529
 H     11  10   9     1.043271024639   112.82693240    65.05112192
 H     11  10   9     1.022149085972   110.77684528   184.99203512
 H     11  10   9     1.022325193664   111.44865773   304.54258270
 H      1   2   3     1.083045464674   175.72920540   279.29415792
 H      2   1   3     1.085179927500   178.63246801   357.72898045
 H      4   1   2     1.083136022229   119.38450988   175.40076472
 H      7   3   1     0.969161067861   110.13931566   180.68819088
 H      8   6   2     0.967232514092   111.61782759   359.85608769
 H      9   5   2     1.092310861898   109.91507536   170.13574185
 H      9   5   2     1.092995689897   109.48193700    52.89038092
 H     10   9   5     1.088454336226   111.99301094    49.16899222
 H     10   9   5     1.088293700370   110.40214697   170.87404124
 Cu     4   1   2     2.215598177005    73.11656699   272.15115482
 Cu    24   4   1     2.299127360495   152.86941574   166.22782158

---------------------------
INTERNAL COORDINATES (A.U.)
---------------------------
 C      0   0   0     0.000000000000     0.00000000     0.00000000
 C      1   0   0     5.261459854213     0.00000000     0.00000000
 C      1   2   0     2.635065083229    60.40635235     0.00000000
 C      1   2   3     2.659553984654    59.69418268   180.11942342
 C      2   1   3     2.638654136939    61.14050528   179.88033493
 C      2   1   3     2.624313553126    60.09516360   359.73802595
 O      3   1   2     2.557731352838   119.48473370   180.93399994
 O      6   2   1     2.568007303552   123.96805861   179.86817278
 C      5   2   1     2.850643910477   120.32627178   179.94938792
 C      9   5   2     2.882508884666   114.61915788   293.59283751
 N     10   9   5     2.836970310490   112.14808945   289.40454529
 H     11  10   9     1.971496520023   112.82693240    65.05112192
 H     11  10   9     1.931581840524   110.77684528   184.99203512
 H     11  10   9     1.931914635833   111.44865773   304.54258270
 H      1   2   3     2.046659318820   175.72920540   279.29415792
 H      2   1   3     2.050692869003   178.63246801   357.72898045
 H      4   1   2     2.046830447798   119.38450988   175.40076472
 H      7   3   1     1.831448997915   110.13931566   180.68819088
 H      8   6   2     1.827804559458   111.61782759   359.85608769
 H      9   5   2     2.064168382094   109.91507536   170.13574185
 H      9   5   2     2.065462519461   109.48193700    52.89038092
 H     10   9   5     2.056880604746   111.99301094    49.16899222
 H     10   9   5     2.056577046970   110.40214697   170.87404124
 Cu     4   1   2     4.186873777354    73.11656699   272.15115482
 Cu    24   4   1     4.344721058340   152.86941574   166.22782158

No protocol specified


           ************************************************************
           *        Program running with 16 parallel MPI-processes    *
           *              working on a common directory               *
           ************************************************************
------------------------------------------------------------------------------
                   ___                                                        
                  /   \      - P O W E R E D   B Y -                         
                 /     \                                                     
                 |  |  |   _    _      __       _____    __    __             
                 |  |  |  | |  | |    /  \     |  _  \  |  |  /  |          
                  \  \/   | |  | |   /    \    | | | |  |  | /  /          
                 / \  \   | |__| |  /  /\  \   | |_| |  |  |/  /          
                |  |  |   |  __  | /  /__\  \  |    /   |      \           
                |  |  |   | |  | | |   __   |  |    \   |  |\   \          
                \     /   | |  | | |  |  |  |  | |\  \  |  | \   \       
                 \___/    |_|  |_| |__|  |__|  |_| \__\ |__|  \__/        
                                                                              
                      - O R C A' S   B I G   F R I E N D -                    
                                      &                                       
                       - I N T E G R A L  F E E D E R -                       
                                                                              
 v1 FN, 2020, v2 2021                                                         
------------------------------------------------------------------------------


Reading SHARK input file protonated.SHARKINP.tmp ... ok
----------------------
SHARK INTEGRAL PACKAGE
----------------------

Number of atoms                             ...     25
Number of basis functions                   ...    503
Number of shells                            ...    199
Maximum angular momentum                    ...      3
Integral batch strategy                     ... SHARK/LIBINT Hybrid
RI-J (if used) integral strategy            ... SPLIT-RIJ (Revised 2003 algorithm where possible)
Printlevel                                  ...      1
Contraction scheme used                     ... SEGMENTED contraction
Coulomb Range Separation                    ... NOT USED
Exchange Range Separation                   ... NOT USED
Finite Nucleus Model                        ... NOT USED
Auxiliary Coulomb fitting basis             ... AVAILABLE
   # of basis functions in Aux-J            ...    853
   # of shells in Aux-J                     ...    271
   Maximum angular momentum in Aux-J        ...      4
Auxiliary J/K fitting basis                 ... NOT available
Auxiliary Correlation fitting basis         ... NOT available
Auxiliary 'external' fitting basis          ... NOT available
Integral threshold                          ...     2.500000e-11
Primitive cut-off                           ...     2.500000e-12
Primitive pair pre-selection threshold      ...     2.500000e-12

Calculating pre-screening integrals         ... done (  0.1 sec) Dimension = 199
Organizing shell pair data                  ... done (  0.5 sec)
Shell pair information
Total number of shell pairs                 ...     19900
Shell pairs after pre-screening             ...     16210
Total number of primitive shell pairs       ...     66826
Primitive shell pairs kept                  ...     36759
          la=0 lb=0:   4247 shell pairs
          la=1 lb=0:   4482 shell pairs
          la=1 lb=1:   1223 shell pairs
          la=2 lb=0:   2544 shell pairs
          la=2 lb=1:   1360 shell pairs
          la=2 lb=2:    400 shell pairs
          la=3 lb=0:   1011 shell pairs
          la=3 lb=1:    556 shell pairs
          la=3 lb=2:    318 shell pairs
          la=3 lb=3:     69 shell pairs

Calculating one electron integrals          ... done (  0.0 sec)
Calculating RI/J V-Matrix + Cholesky decomp.... done (  0.0 sec)
Calculating Nuclear repulsion               ... done (  0.0 sec) ENN=   1474.475013433707 Eh

SHARK setup successfully completed in   1.0 seconds

Maximum memory used throughout the entire GTOINT-calculation: 32.6 MB
No protocol specified


           ************************************************************
           *        Program running with 16 parallel MPI-processes    *
           *              working on a common directory               *
           ************************************************************

Diagonalization of the overlap matrix:
Smallest eigenvalue                        ... 6.482e-06
Time for diagonalization                   ...    0.076 sec
Threshold for overlap eigenvalues          ... 1.000e-08
Number of eigenvalues below threshold      ... 0
Time for construction of square roots      ...    0.047 sec
Total time needed                          ...    0.125 sec

-------------------
DFT GRID GENERATION
-------------------

General Integration Accuracy     IntAcc      ... 4.388
Radial Grid Type                 RadialGrid  ... OptM3 with GC (2021)
Angular Grid (max. ang.)         AngularGrid ... 4 (Lebedev-302)
Angular grid pruning method      GridPruning ... 4 (adaptive)
Weight generation scheme         WeightScheme... Becke
Basis function cutoff            BFCut       ... 1.0000e-11
Integration weight cutoff        WCut        ... 1.0000e-14
Angular grids for H and He will be reduced by one unit
Partially contracted basis set               ... off
Rotationally invariant grid construction     ... off

Total number of grid points                  ...   126107
Total number of batches                      ...     1981
Average number of points per batch           ...       63
Average number of grid points per atom       ...     5044
Time for grid setup =    1.039 sec

--------------------
COSX GRID GENERATION
--------------------

GRIDX 1
-------
General Integration Accuracy     IntAcc      ... 3.816
Radial Grid Type                 RadialGrid  ... OptM3 with GC (2021)
Angular Grid (max. ang.)         AngularGrid ... 1 (Lebedev-50)
Angular grid pruning method      GridPruning ... 4 (adaptive)
Weight generation scheme         WeightScheme... Becke
Basis function cutoff            BFCut       ... 1.0000e-11
Integration weight cutoff        WCut        ... 1.0000e-14
Angular grids for H and He will be reduced by one unit
Partially contracted basis set               ... on
Rotationally invariant grid construction     ... off

Total number of grid points                  ...    15660
Total number of batches                      ...      258
Average number of points per batch           ...       60
Average number of grid points per atom       ...      626
UseSFitting                                  ... on

GRIDX 2
-------
General Integration Accuracy     IntAcc      ... 4.020
Radial Grid Type                 RadialGrid  ... OptM3 with GC (2021)
Angular Grid (max. ang.)         AngularGrid ... 2 (Lebedev-110)
Angular grid pruning method      GridPruning ... 4 (adaptive)
Weight generation scheme         WeightScheme... Becke
Basis function cutoff            BFCut       ... 1.0000e-11
Integration weight cutoff        WCut        ... 1.0000e-14
Angular grids for H and He will be reduced by one unit
Partially contracted basis set               ... on
Rotationally invariant grid construction     ... off

Total number of grid points                  ...    33566
Total number of batches                      ...      538
Average number of points per batch           ...       62
Average number of grid points per atom       ...     1343
UseSFitting                                  ... on

GRIDX 3
-------
General Integration Accuracy     IntAcc      ... 4.338
Radial Grid Type                 RadialGrid  ... OptM3 with GC (2021)
Angular Grid (max. ang.)         AngularGrid ... 3 (Lebedev-194)
Angular grid pruning method      GridPruning ... 4 (adaptive)
Weight generation scheme         WeightScheme... Becke
Basis function cutoff            BFCut       ... 1.0000e-11
Integration weight cutoff        WCut        ... 1.0000e-14
Angular grids for H and He will be reduced by one unit
Partially contracted basis set               ... on
Rotationally invariant grid construction     ... off

Total number of grid points                  ...    73591
Total number of batches                      ...     1161
Average number of points per batch           ...       63
Average number of grid points per atom       ...     2944
UseSFitting                                  ... on

Time for X-Grid setup             =    0.967 sec


--------------------
CPCM SOLVATION MODEL
--------------------
CPCM parameters:
  Epsilon                                         ...      80.4000
  Refrac                                          ...       1.3300
  Rsolv                                           ...       1.3000
  Surface type                                    ... GAUSSIAN VDW
  Epsilon function type                           ...         CPCM
Radii:
 Radius for C  used is    3.8550 Bohr (=   2.0400 Ang.)
 Radius for O  used is    3.4469 Bohr (=   1.8240 Ang.)
 Radius for N  used is    3.5149 Bohr (=   1.8600 Ang.)
 Radius for H  used is    2.4944 Bohr (=   1.3200 Ang.)
 Radius for Cu used is    3.1747 Bohr (=   1.6800 Ang.)
Calculating surface                               ...        done! (  0.0s)
GEPOL surface points                              ...         1449
GEPOL Volume                                      ...    1482.2494
GEPOL Surface-area                                ...     831.0025
Calculating surface distance matrix               ...        done! (  0.0s)
Performing Cholesky decomposition & store         ...        done! (  0.2s)
Overall time for CPCM initialization              ...                 0.2s
--------------
SCF ITERATIONS
--------------
ITER       Energy         Delta-E        Max-DP      RMS-DP      [F,P]     Damp
               ***  Starting incremental Fock matrix formation  ***
  0  -3797.9981050484   0.000000000000 0.00568747  0.00004288  0.0095846 0.8500
  1  -3797.9981357618  -0.000030713338 0.00600300  0.00004429  0.0081480 0.8500
                               ***Turning on DIIS***
  2  -3797.9981643063  -0.000028544549 0.03627296  0.00026372  0.0069256 0.0000
  3  -3797.9983320751  -0.000167768816 0.00421152  0.00003438  0.0012281 0.0000
  4  -3797.9983335247  -0.000001449544 0.00072337  0.00000800  0.0021738 0.0000
  5  -3797.9983389481  -0.000005423388 0.00027202  0.00000437  0.0010783 0.0000
  6  -3797.9983404278  -0.000001479703 0.00019070  0.00000271  0.0000643 0.0000
               *** Restarting incremental Fock matrix formation ***
                                   *** Resetting DIIS ***
  7  -3797.9983409372  -0.000000509472 0.00014096  0.00000186  0.0000825 0.0000
  8  -3797.9983409641  -0.000000026902 0.00014430  0.00000113  0.0001703 0.0000
  9  -3797.9983410247  -0.000000060536 0.00008240  0.00000128  0.0000279 0.0000
 10  -3797.9983410368  -0.000000012100 0.00039945  0.00000437  0.0000222 0.0000
 11  -3797.9983410493  -0.000000012502 0.00023295  0.00000249  0.0000151 0.0000
 12  -3797.9983410657  -0.000000016454 0.00013192  0.00000155  0.0000132 0.0000
 13  -3797.9983410736  -0.000000007896 0.00015277  0.00000145  0.0000069 0.0000
 14  -3797.9983410657   0.000000007925 0.00023013  0.00000137  0.0000048 0.0000
 15  -3797.9983410701  -0.000000004443 0.00006301  0.00000050  0.0000035 0.0000
 16  -3797.9983410867  -0.000000016537 0.00003925  0.00000044  0.0000022 0.0000
 17  -3797.9983411018  -0.000000015099 0.00003182  0.00000031  0.0000016 0.0000
 18  -3797.9983411039  -0.000000002097 0.00000660  0.00000009  0.0000014 0.0000
                            ***DIIS convergence achieved***

               *****************************************************
               *                     SUCCESS                       *
               *           SCF CONVERGED AFTER  19 CYCLES          *
               *****************************************************

Old exchange energy                            =    -39.960137524 Eh
New exchange energy                            =    -39.960155640 Eh
Exchange energy change after final integration =     -0.000018116 Eh
Total energy after final integration           =  -3797.998359233 Eh
Final COS-X integration done in                =     9.940 sec
Total Energy       :        -3797.99835923 Eh         -103348.78951 eV
  Last Energy change         ...   -1.3428e-08  Tolerance :   1.0000e-08
  Last MAX-Density change    ...    0.0000e+00  Tolerance :   1.0000e-07
             **** THE GBW FILE WAS UPDATED (protonated.gbw) ****
             **** DENSITY protonated.scfp WAS UPDATED ****
             **** ENERGY FILE WAS UPDATED (protonated.en.tmp) ****
             **** THE GBW FILE WAS UPDATED (protonated.gbw) ****
             **** DENSITY protonated.scfp WAS UPDATED ****
Total SCF time: 0 days 0 hours 1 min 43 sec 

Maximum memory used throughout the entire SCF-calculation: 106.3 MB


-------------------------------------------------------------------------------
                          DFT DISPERSION CORRECTION                            
                                                                               
                              DFTD3 V3.1  Rev 1                                
                          USING Becke-Johnson damping                          
-------------------------------------------------------------------------------
-------------------------   ----------------
Dispersion correction           -0.056026397
-------------------------   ----------------


-------------------------   --------------------
FINAL SINGLE POINT ENERGY     -3798.054385629686
-------------------------   --------------------

No protocol specified


           ************************************************************
           *        Program running with 16 parallel MPI-processes    *
           *              working on a common directory               *
           ************************************************************
------------------------------------------------------------------------------
                         ORCA SCF GRADIENT CALCULATION
------------------------------------------------------------------------------

 ... reading COSX grid (gridx3)
Gradient of the Kohn-Sham DFT energy:
Kohn-Sham wavefunction type      ... RKS
Hartree-Fock exchange scaling    ...    0.200
Number of operators              ...    1
Number of atoms                  ...   25
Basis set dimensions             ...  503
Integral neglect threshold       ... 2.5e-11
Integral primitive cutoff        ... 2.5e-12
SHARK Integral package           ... ON

Nuc. rep. gradient       (SHARK) ... done (  0.0 sec)
HCore & Overlap gradient (SHARK) ... done (  0.3 sec)
RI-J gradient            (SHARK) ... done (  1.7 sec)
COSX-gradient                    ... --------------------------------------------------------------------------
Primary job  terminated normally, but 1 process returned
a non-zero exit code. Per user-direction, the job has been aborted.
--------------------------------------------------------------------------
--------------------------------------------------------------------------
mpirun noticed that process rank 2 with PID 0 on node saturn exited on signal 15 (Terminated).
--------------------------------------------------------------------------

ORCA finished by error termination in SCF gradient
Calling Command: mpirun -np 16  /opt/orca/orca_scfgrad_mpi protonated.scfgrad.inp protonated 
Check for SCF gradient-logfiles
[file orca_main/maingopt.cpp, line 1220]: ORCA finished with an error in the gradient calculation

[file orca_main/maingopt.cpp, line 1220]: ORCA finished with an error in the gradient calculation

