
                                 *****************
                                 * O   R   C   A *
                                 *****************

                                            #,                                       
                                            ###                                      
                                            ####                                     
                                            #####                                    
                                            ######                                   
                                           ########,                                 
                                     ,,################,,,,,                         
                               ,,#################################,,                 
                          ,,##########################################,,             
                       ,#########################################, ''#####,          
                    ,#############################################,,   '####,        
                  ,##################################################,,,,####,       
                ,###########''''           ''''###############################       
              ,#####''   ,,,,##########,,,,          '''####'''          '####       
            ,##' ,,,,###########################,,,                        '##       
           ' ,,###''''                  '''############,,,                           
         ,,##''                                '''############,,,,        ,,,,,,###''
      ,#''                                            '''#######################'''  
     '                                                          ''''####''''         
             ,#######,   #######,   ,#######,      ##                                
            ,#'     '#,  ##    ##  ,#'     '#,    #''#        ######   ,####,        
            ##       ##  ##   ,#'  ##            #'  '#       #        #'  '#        
            ##       ##  #######   ##           ,######,      #####,   #    #        
            '#,     ,#'  ##    ##  '#,     ,#' ,#      #,         ##   #,  ,#        
             '#######'   ##     ##  '#######'  #'      '#     #####' # '####'        



                  #######################################################
                  #                        -***-                        #
                  #          Department of theory and spectroscopy      #
                  #    Directorship and core code : Frank Neese         #
                  #        Max Planck Institute fuer Kohlenforschung    #
                  #                Kaiser Wilhelm Platz 1               #
                  #                 D-45470 Muelheim/Ruhr               #
                  #                      Germany                        #
                  #                                                     #
                  #                  All rights reserved                #
                  #                        -***-                        #
                  #######################################################


                         Program Version 5.0.1 -  RELEASE  -


 With contributions from (in alphabetic order):
   Daniel Aravena         : Magnetic Suceptibility
   Michael Atanasov       : Ab Initio Ligand Field Theory (pilot matlab implementation)
   Alexander A. Auer      : GIAO ZORA, VPT2 properties, NMR spectrum
   Ute Becker             : Parallelization
   Giovanni Bistoni       : ED, misc. LED, open-shell LED, HFLD
   Martin Brehm           : Molecular dynamics
   Dmytro Bykov           : SCF Hessian
   Vijay G. Chilkuri      : MRCI spin determinant printing, contributions to CSF-ICE
   Dipayan Datta          : RHF DLPNO-CCSD density
   Achintya Kumar Dutta   : EOM-CC, STEOM-CC
   Dmitry Ganyushin       : Spin-Orbit,Spin-Spin,Magnetic field MRCI
   Miquel Garcia          : C-PCM and meta-GGA Hessian, CC/C-PCM, Gaussian charge scheme
   Yang Guo               : DLPNO-NEVPT2, F12-NEVPT2, CIM, IAO-localization
   Andreas Hansen         : Spin unrestricted coupled pair/coupled cluster methods
   Benjamin Helmich-Paris : MC-RPA, TRAH-SCF, COSX integrals
   Lee Huntington         : MR-EOM, pCC
   Robert Izsak           : Overlap fitted RIJCOSX, COSX-SCS-MP3, EOM
   Marcus Kettner         : VPT2
   Christian Kollmar      : KDIIS, OOCD, Brueckner-CCSD(T), CCSD density, CASPT2, CASPT2-K
   Simone Kossmann        : Meta GGA functionals, TD-DFT gradient, OOMP2, MP2 Hessian
   Martin Krupicka        : Initial AUTO-CI
   Lucas Lang             : DCDCAS
   Marvin Lechner         : AUTO-CI (C++ implementation), FIC-MRCC
   Dagmar Lenk            : GEPOL surface, SMD
   Dimitrios Liakos       : Extrapolation schemes; Compound Job, initial MDCI parallelization
   Dimitrios Manganas     : Further ROCIS development; embedding schemes
   Dimitrios Pantazis     : SARC Basis sets
   Anastasios Papadopoulos: AUTO-CI, single reference methods and gradients
   Taras Petrenko         : DFT Hessian,TD-DFT gradient, ASA, ECA, R-Raman, ABS, FL, XAS/XES, NRVS
   Peter Pinski           : DLPNO-MP2, DLPNO-MP2 Gradient
   Christoph Reimann      : Effective Core Potentials
   Marius Retegan         : Local ZFS, SOC
   Christoph Riplinger    : Optimizer, TS searches, QM/MM, DLPNO-CCSD(T), (RO)-DLPNO pert. Triples
   Tobias Risthaus        : Range-separated hybrids, TD-DFT gradient, RPA, STAB
   Michael Roemelt        : Original ROCIS implementation
   Masaaki Saitow         : Open-shell DLPNO-CCSD energy and density
   Barbara Sandhoefer     : DKH picture change effects
   Avijit Sen             : IP-ROCIS
   Kantharuban Sivalingam : CASSCF convergence, NEVPT2, FIC-MRCI
   Bernardo de Souza      : ESD, SOC TD-DFT
   Georgi Stoychev        : AutoAux, RI-MP2 NMR, DLPNO-MP2 response
   Willem Van den Heuvel  : Paramagnetic NMR
   Boris Wezisla          : Elementary symmetry handling
   Frank Wennmohs         : Technical directorship


 We gratefully acknowledge several colleagues who have allowed us to
 interface, adapt or use parts of their codes:
   Stefan Grimme, W. Hujo, H. Kruse, P. Pracht,  : VdW corrections, initial TS optimization,
                  C. Bannwarth, S. Ehlert          DFT functionals, gCP, sTDA/sTD-DF
   Ed Valeev, F. Pavosevic, A. Kumar             : LibInt (2-el integral package), F12 methods
   Garnet Chan, S. Sharma, J. Yang, R. Olivares  : DMRG
   Ulf Ekstrom                                   : XCFun DFT Library
   Mihaly Kallay                                 : mrcc  (arbitrary order and MRCC methods)
   Jiri Pittner, Ondrej Demel                    : Mk-CCSD
   Frank Weinhold                                : gennbo (NPA and NBO analysis)
   Christopher J. Cramer and Donald G. Truhlar   : smd solvation model
   Lars Goerigk                                  : TD-DFT with DH, B97 family of functionals
   V. Asgeirsson, H. Jonsson                     : NEB implementation
   FAccTs GmbH                                   : IRC, NEB, NEB-TS, DLPNO-Multilevel, CI-OPT
                                                   MM, QMMM, 2- and 3-layer-ONIOM, Crystal-QMMM,
                                                   LR-CPCM, SF, NACMEs, symmetry and pop. for TD-DFT,
                                                   nearIR, NL-DFT gradient (VV10), updates on ESD,
                                                   ML-optimized integration grids
   S Lehtola, MJT Oliveira, MAL Marques          : LibXC Library
   Liviu Ungur et al                             : ANISO software


 Your calculation uses the libint2 library for the computation of 2-el integrals
 For citations please refer to: http://libint.valeyev.net

 Your ORCA version has been built with support for libXC version: 5.1.0
 For citations please refer to: https://tddft.org/programs/libxc/

 This ORCA versions uses:
   CBLAS   interface :  Fast vector & matrix operations
   LAPACKE interface :  Fast linear algebra routines
   SCALAPACK package :  Parallel linear algebra routines
   Shared memory     :  Shared parallel matrices
   BLAS/LAPACK       :  OpenBLAS 0.3.15  USE64BITINT DYNAMIC_ARCH NO_AFFINITY Haswell SINGLE_THREADED
        Core in use  :  Haswell
   Copyright (c) 2011-2014, The OpenBLAS Project


Your calculation utilizes the atom-pairwise dispersion correction
with the Becke-Johnson damping scheme (D3BJ)
Cite in your paper:
S.Grimme, S.Ehrlich, L.Goerigk, J Comput Chem, (2011), 32, 1456–1465 
S.Grimme, J.Antony, S.Ehrlich and H.Krieg, J.Chem.Phys., 132, (2010), 154104 
   

================================================================================

----- Orbital basis set information -----
Your calculation utilizes the basis: def2-TZVP
   F. Weigend and R. Ahlrichs, Phys. Chem. Chem. Phys. 7, 3297 (2005).

----- AuxJ basis set information -----
Your calculation utilizes the auxiliary basis: def2/J
   F. Weigend, Phys. Chem. Chem. Phys. 8, 1057 (2006).

================================================================================
                                        WARNINGS
                       Please study these warnings very carefully!
================================================================================


WARNING: The environment variable RSH_COMMAND is not set!
  ===> : All Displacements for the Numerical Hessian calculation
         will be started on localhost

WARNING: Geometry Optimization
  ===> : Switching off AutoStart
         For restart on a previous wavefunction, please use MOREAD

INFO   : the flag for use of the SHARK integral package has been found!

================================================================================
                                       INPUT FILE
================================================================================
NAME = ex.inp
|  1> ! PBE D3 def2-TZVP opt numfreq
|  2> 
|  3> %base "M00016"
|  4> %pal nprocs=8 end
|  5> %geom maxiter=75 end
|  6> * xyz 0 1
|  7> C       -0.046652     -0.911071     -0.532758
|  8> C       -1.135871      1.590984      0.120364
|  9> C       -1.381293     -0.790692     -0.171165
| 10> C        0.766734      0.230357     -0.570469
| 11> C        0.210423      1.479188     -0.241853
| 12> C       -1.925139      0.448711      0.153453
| 13> O       -3.247017      0.492122      0.501091
| 14> O       -2.163985     -1.909307     -0.134001
| 15> C        2.225367      0.115784     -0.948125
| 16> C        3.187017      0.283614      0.238177
| 17> N        3.056643     -0.765978      1.249695
| 18> H        0.350146     -1.891510     -0.780768
| 19> H       -1.540199      2.566466      0.369856
| 20> H        0.828192      2.374941     -0.266569
| 21> H       -3.475863      1.416560      0.698663
| 22> H       -3.044027     -1.580947      0.138402
| 23> H        2.448055      0.881624     -1.702239
| 24> H        2.410633     -0.847709     -1.440388
| 25> H        4.216463      0.270880     -0.136514
| 26> H        3.036819      1.255781      0.720669
| 27> H        3.152908     -1.679303      0.806926
| 28> H        2.104875     -0.748710      1.621641
| 29> *
| 30> 
| 31>                          ****END OF INPUT****
================================================================================

                       *****************************
                       * Geometry Optimization Run *
                       *****************************

Geometry optimization settings:
Update method            Update   .... BFGS
Choice of coordinates    CoordSys .... Z-matrix Internals
Initial Hessian          InHess   .... Almoef's Model

Convergence Tolerances:
Energy Change            TolE     ....  5.0000e-06 Eh
Max. Gradient            TolMAXG  ....  3.0000e-04 Eh/bohr
RMS Gradient             TolRMSG  ....  1.0000e-04 Eh/bohr
Max. Displacement        TolMAXD  ....  4.0000e-03 bohr
RMS Displacement         TolRMSD  ....  2.0000e-03 bohr
Strict Convergence                ....  False
------------------------------------------------------------------------------
                        ORCA OPTIMIZATION COORDINATE SETUP
------------------------------------------------------------------------------

The optimization will be done in new redundant internal coordinates
Making redundant internal coordinates   ...  (new redundants) done
Evaluating the initial hessian          ...  (Almloef) done
Evaluating the coordinates              ...  done
Calculating the B-matrix                .... done
Calculating the G-matrix                .... done
Diagonalizing the G-matrix              .... done
Small eigenvalue found = 1.821e-02
Small eigenvalue found = 2.963e-02
The first mode is                       ....   46
The number of degrees of freedom        ....   60

    -----------------------------------------------------------------
                    Redundant Internal Coordinates


    -----------------------------------------------------------------
         Definition                    Initial Value    Approx d2E/dq
    -----------------------------------------------------------------
      1. B(C   2,C   0)                  1.3880         0.629435   
      2. B(C   3,C   0)                  1.4021         0.597638   
      3. B(C   4,C   3)                  1.4061         0.588966   
      4. B(C   4,C   1)                  1.3986         0.605266   
      5. B(C   5,C   2)                  1.3919         0.620549   
      6. B(C   5,C   1)                  1.3888         0.627506   
      7. B(O   6,C   5)                  1.3675         0.607783   
      8. B(O   7,C   2)                  1.3658         0.611725   
      9. B(C   8,C   3)                  1.5111         0.400464   
     10. B(C   9,C   8)                  1.5363         0.365014   
     11. B(N  10,C   9)                  1.4635         0.427192   
     12. B(H  11,C   0)                  1.0864         0.364923   
     13. B(H  12,C   1)                  1.0850         0.366734   
     14. B(H  13,C   4)                  1.0884         0.362218   
     15. B(H  14,O   6)                  0.9726         0.496400   
     16. B(H  15,O   7)                  0.9780         0.486674   
     17. B(H  16,C   8)                  1.0976         0.350148   
     18. B(H  17,C   8)                  1.0977         0.350045   
     19. B(H  18,C   9)                  1.0956         0.352782   
     20. B(H  19,C   9)                  1.0957         0.352692   
     21. B(H  20,N  10)                  1.0195         0.417797   
     22. B(H  21,N  10)                  1.0220         0.414032   
     23. A(C   2,C   0,C   3)          119.6188         0.432381   
     24. A(C   3,C   0,H  11)          121.1092         0.351513   
     25. A(C   2,C   0,H  11)          119.2720         0.354611   
     26. A(C   4,C   1,H  12)          119.3475         0.352563   
     27. A(C   5,C   1,H  12)          121.4789         0.354724   
     28. A(C   4,C   1,C   5)          119.1736         0.433129   
     29. A(C   0,C   2,C   5)          120.9110         0.435317   
     30. A(C   5,C   2,O   7)          119.9380         0.430256   
     31. A(C   0,C   2,O   7)          119.1509         0.431356   
     32. A(C   4,C   3,C   8)          120.5087         0.397951   
     33. A(C   0,C   3,C   8)          120.3302         0.398975   
     34. A(C   0,C   3,C   4)          119.1590         0.427255   
     35. A(C   1,C   4,C   3)          120.8210         0.428227   
     36. A(C   3,C   4,H  13)          120.0718         0.350206   
     37. A(C   1,C   4,H  13)          119.1072         0.351825   
     38. A(C   1,C   5,O   6)          121.9570         0.430618   
     39. A(C   1,C   5,C   2)          120.3166         0.435077   
     40. A(C   2,C   5,O   6)          117.7264         0.429757   
     41. A(C   5,O   6,H  14)          108.0138         0.365931   
     42. A(C   2,O   7,H  15)          104.3751         0.365098   
     43. A(C   3,C   8,C   9)          113.7629         0.366243   
     44. A(C   3,C   8,H  17)          109.9711         0.326523   
     45. A(C   9,C   8,H  16)          109.1051         0.321607   
     46. A(C   3,C   8,H  16)          108.3394         0.326539   
     47. A(C   9,C   8,H  17)          109.6650         0.321592   
     48. A(H  16,C   8,H  17)          105.6685         0.288282   
     49. A(C   8,C   9,H  19)          110.5585         0.321989   
     50. A(N  10,C   9,H  18)          108.1647         0.328460   
     51. A(C   8,C   9,H  18)          108.8326         0.322002   
     52. A(N  10,C   9,H  19)          108.6490         0.328446   
     53. A(C   8,C   9,N  10)          113.5528         0.368012   
     54. A(H  18,C   9,H  19)          106.8416         0.288961   
     55. A(H  20,N  10,H  21)          105.1363         0.299451   
     56. A(C   9,N  10,H  21)          108.8072         0.334403   
     57. A(C   9,N  10,H  20)          109.5052         0.334906   
     58. D(C   5,C   2,C   0,C   3)      0.0786         0.027467   
     59. D(C   5,C   2,C   0,H  11)    179.9897         0.027467   
     60. D(O   7,C   2,C   0,H  11)      0.0917         0.027467   
     61. D(O   7,C   2,C   0,C   3)   -179.8194         0.027467   
     62. D(C   8,C   3,C   0,C   2)    179.3695         0.024612   
     63. D(C   4,C   3,C   0,C   2)     -0.1045         0.024612   
     64. D(C   4,C   3,C   0,H  11)    179.9860         0.024612   
     65. D(C   8,C   3,C   0,H  11)     -0.5399         0.024612   
     66. D(C   1,C   4,C   3,C   8)   -179.4173         0.023867   
     67. D(C   1,C   4,C   3,C   0)      0.0558         0.023867   
     68. D(H  13,C   4,C   1,H  12)      0.0009         0.025279   
     69. D(C   3,C   4,C   1,C   5)      0.0204         0.025279   
     70. D(H  13,C   4,C   1,C   5)   -179.9461         0.025279   
     71. D(H  13,C   4,C   3,C   0)   -179.9780         0.023867   
     72. D(C   3,C   4,C   1,H  12)    179.9674         0.025279   
     73. D(H  13,C   4,C   3,C   8)      0.5489         0.023867   
     74. D(O   6,C   5,C   2,O   7)     -0.0667         0.026649   
     75. D(C   1,C   5,C   2,O   7)    179.8958         0.026649   
     76. D(O   6,C   5,C   1,H  12)     -0.0329         0.027288   
     77. D(O   6,C   5,C   1,C   4)    179.9129         0.027288   
     78. D(C   1,C   5,C   2,C   0)     -0.0014         0.026649   
     79. D(O   6,C   5,C   2,C   0)   -179.9640         0.026649   
     80. D(C   2,C   5,C   1,H  12)   -179.9939         0.027288   
     81. D(C   2,C   5,C   1,C   4)     -0.0480         0.027288   
     82. D(H  14,O   6,C   5,C   2)    179.9359         0.027026   
     83. D(H  14,O   6,C   5,C   1)     -0.0260         0.027026   
     84. D(H  15,O   7,C   2,C   5)      0.2542         0.027402   
     85. D(H  15,O   7,C   2,C   0)   -179.8468         0.027402   
     86. D(H  16,C   8,C   3,C   0)    131.7256         0.011901   
     87. D(C   9,C   8,C   3,C   4)     72.7060         0.011901   
     88. D(C   9,C   8,C   3,C   0)   -106.7608         0.011901   
     89. D(H  17,C   8,C   3,C   4)   -163.8435         0.011901   
     90. D(H  17,C   8,C   3,C   0)     16.6896         0.011901   
     91. D(H  16,C   8,C   3,C   4)    -48.8075         0.011901   
     92. D(H  19,C   9,C   8,H  16)     62.8551         0.010669   
     93. D(H  19,C   9,C   8,C   3)    -58.2317         0.010669   
     94. D(H  18,C   9,C   8,H  17)     61.0960         0.010669   
     95. D(H  18,C   9,C   8,H  16)    -54.2002         0.010669   
     96. D(H  18,C   9,C   8,C   3)   -175.2870         0.010669   
     97. D(N  10,C   9,C   8,H  17)    -59.4339         0.010669   
     98. D(N  10,C   9,C   8,H  16)   -174.7302         0.010669   
     99. D(H  19,C   9,C   8,H  17)    178.1514         0.010669   
    100. D(N  10,C   9,C   8,C   3)     64.1831         0.010669   
    101. D(H  21,N  10,C   9,H  19)     63.0844         0.015559   
    102. D(H  21,N  10,C   9,H  18)    178.7140         0.015559   
    103. D(H  21,N  10,C   9,C   8)    -60.3800         0.015559   
    104. D(H  20,N  10,C   9,H  19)    177.4951         0.015559   
    105. D(H  20,N  10,C   9,H  18)    -66.8753         0.015559   
    106. D(H  20,N  10,C   9,C   8)     54.0307         0.015559   
    -----------------------------------------------------------------

Number of atoms                         .... 22
Number of degrees of freedom            .... 106

         *************************************************************
         *                GEOMETRY OPTIMIZATION CYCLE   1            *
         *************************************************************
---------------------------------
CARTESIAN COORDINATES (ANGSTROEM)
---------------------------------
  C     -0.046652   -0.911071   -0.532758
  C     -1.135871    1.590984    0.120364
  C     -1.381293   -0.790692   -0.171165
  C      0.766734    0.230357   -0.570469
  C      0.210423    1.479188   -0.241853
  C     -1.925139    0.448711    0.153453
  O     -3.247017    0.492122    0.501091
  O     -2.163985   -1.909307   -0.134001
  C      2.225367    0.115784   -0.948125
  C      3.187017    0.283614    0.238177
  N      3.056643   -0.765978    1.249695
  H      0.350146   -1.891510   -0.780768
  H     -1.540199    2.566466    0.369856
  H      0.828192    2.374941   -0.266569
  H     -3.475863    1.416560    0.698663
  H     -3.044027   -1.580947    0.138402
  H      2.448055    0.881624   -1.702239
  H      2.410633   -0.847709   -1.440388
  H      4.216463    0.270880   -0.136514
  H      3.036819    1.255781    0.720669
  H      3.152908   -1.679303    0.806926
  H      2.104875   -0.748710    1.621641

----------------------------
CARTESIAN COORDINATES (A.U.)
----------------------------
  NO LB      ZA    FRAG     MASS         X           Y           Z
   0 C     6.0000    0    12.011   -0.088160   -1.721675   -1.006767
   1 C     6.0000    0    12.011   -2.146485    3.006524    0.227455
   2 C     6.0000    0    12.011   -2.610265   -1.494191   -0.323455
   3 C     6.0000    0    12.011    1.448917    0.435312   -1.078030
   4 C     6.0000    0    12.011    0.397642    2.795260   -0.457036
   5 C     6.0000    0    12.011   -3.637985    0.847941    0.289984
   6 O     8.0000    0    15.999   -6.135973    0.929976    0.946925
   7 O     8.0000    0    15.999   -4.089339   -3.608067   -0.253225
   8 C     6.0000    0    12.011    4.205334    0.218800   -1.791697
   9 C     6.0000    0    12.011    6.022589    0.535953    0.450089
  10 N     7.0000    0    14.007    5.776218   -1.447489    2.361581
  11 H     1.0000    0     1.008    0.661680   -3.574436   -1.475438
  12 H     1.0000    0     1.008   -2.910554    4.849918    0.698927
  13 H     1.0000    0     1.008    1.565056    4.487988   -0.503742
  14 H     1.0000    0     1.008   -6.568429    2.676910    1.320282
  15 H     1.0000    0     1.008   -5.752377   -2.987557    0.261542
  16 H     1.0000    0     1.008    4.626154    1.666028   -3.216766
  17 H     1.0000    0     1.008    4.555436   -1.601938   -2.721939
  18 H     1.0000    0     1.008    7.967960    0.511889   -0.257974
  19 H     1.0000    0     1.008    5.738756    2.373082    1.361867
  20 H     1.0000    0     1.008    5.958133   -3.173423    1.524869
  21 H     1.0000    0     1.008    3.977637   -1.414857    3.064457

--------------------------------
INTERNAL COORDINATES (ANGSTROEM)
--------------------------------
 C      0   0   0     0.000000000000     0.00000000     0.00000000
 C      1   0   0     2.805930433897     0.00000000     0.00000000
 C      1   2   0     1.387986743514    59.25348443     0.00000000
 C      1   2   3     1.402097280399    60.36531627   180.07792165
 C      2   1   3     1.398644713693    59.65463687   179.95003143
 C      2   1   3     1.388821969971    59.51898061     0.00000000
 O      6   2   1     1.367515316495   121.95698087   179.96165188
 O      3   1   2     1.365755266505   119.15091560   180.10265696
 C      4   1   2     1.511079500011   120.33019264   179.44656459
 C      9   4   1     1.536310537165   113.76294940   253.23915646
 N     10   9   4     1.463492196995   113.55280248    64.18305311
 H      1   2   3     1.086378500167   178.52541170   359.62855409
 H      2   1   3     1.085031115670   179.00208939   179.73186933
 H      5   2   1     1.088403810645   119.10715288   180.00527779
 H      7   6   2     0.972620585194   108.01383676   359.97396929
 H      8   3   1     0.978006955892   104.37508586   180.15321123
 H      9   4   1     1.097628705866   108.33937050   131.72558096
 H      9   4   1     1.097709029285   109.97110610    16.68964735
 H     10   9   4     1.095588685207   108.83260919   184.71299941
 H     10   9   4     1.095658087707   110.55845093   301.76833514
 H     11  10   9     1.019545925013   109.50517213    54.03070032
 H     11  10   9     1.022009949347   108.80718544   299.62004254

---------------------------
INTERNAL COORDINATES (A.U.)
---------------------------
 C      0   0   0     0.000000000000     0.00000000     0.00000000
 C      1   0   0     5.302440070900     0.00000000     0.00000000
 C      1   2   0     2.622914822755    59.25348443     0.00000000
 C      1   2   3     2.649579873069    60.36531627   180.07792165
 C      2   1   3     2.643055467536    59.65463687   179.95003143
 C      2   1   3     2.624493172018    59.51898061     0.00000000
 O      6   2   1     2.584229432119   121.95698087   179.96165188
 O      3   1   2     2.580903419654   119.15091560   180.10265696
 C      4   1   2     2.855526421604   120.33019264   179.44656459
 C      9   4   1     2.903206171899   113.76294940   253.23915646
 N     10   9   4     2.765599451450   113.55280248    64.18305311
 H      1   2   3     2.052957843096   178.52541170   359.62855409
 H      2   1   3     2.050411655399   179.00208939   179.73186933
 H      5   2   1     2.056785125235   119.10715288   180.00527779
 H      7   6   2     1.837986538232   108.01383676   359.97396929
 H      8   3   1     1.848165303706   104.37508586   180.15321123
 H      9   4   1     2.074217650816   108.33937050   131.72558096
 H      9   4   1     2.074369440081   109.97110610    16.68964735
 H     10   9   4     2.070362570464   108.83260919   184.71299941
 H     10   9   4     2.070493722181   110.55845093   301.76833514
 H     11  10   9     1.926662579230   109.50517213    54.03070032
 H     11  10   9     1.931318910408   108.80718544   299.62004254

---------------------
BASIS SET INFORMATION
---------------------
There are 4 groups of distinct atoms

 Group   1 Type C   : 11s6p2d1f contracted to 5s3p2d1f pattern {62111/411/11/1}
 Group   2 Type O   : 11s6p2d1f contracted to 5s3p2d1f pattern {62111/411/11/1}
 Group   3 Type N   : 11s6p2d1f contracted to 5s3p2d1f pattern {62111/411/11/1}
 Group   4 Type H   : 5s1p contracted to 3s1p pattern {311/1}

Atom   0C    basis set group =>   1
Atom   1C    basis set group =>   1
Atom   2C    basis set group =>   1
Atom   3C    basis set group =>   1
Atom   4C    basis set group =>   1
Atom   5C    basis set group =>   1
Atom   6O    basis set group =>   2
Atom   7O    basis set group =>   2
Atom   8C    basis set group =>   1
Atom   9C    basis set group =>   1
Atom  10N    basis set group =>   3
Atom  11H    basis set group =>   4
Atom  12H    basis set group =>   4
Atom  13H    basis set group =>   4
Atom  14H    basis set group =>   4
Atom  15H    basis set group =>   4
Atom  16H    basis set group =>   4
Atom  17H    basis set group =>   4
Atom  18H    basis set group =>   4
Atom  19H    basis set group =>   4
Atom  20H    basis set group =>   4
Atom  21H    basis set group =>   4
---------------------------------
AUXILIARY/J BASIS SET INFORMATION
---------------------------------
There are 4 groups of distinct atoms

 Group   1 Type C   : 12s5p4d2f1g contracted to 6s4p3d1f1g pattern {711111/2111/211/2/1}
 Group   2 Type O   : 12s5p4d2f1g contracted to 6s4p3d1f1g pattern {711111/2111/211/2/1}
 Group   3 Type N   : 12s5p4d2f1g contracted to 6s4p3d1f1g pattern {711111/2111/211/2/1}
 Group   4 Type H   : 5s2p1d contracted to 3s1p1d pattern {311/2/1}

Atom   0C    basis set group =>   1
Atom   1C    basis set group =>   1
Atom   2C    basis set group =>   1
Atom   3C    basis set group =>   1
Atom   4C    basis set group =>   1
Atom   5C    basis set group =>   1
Atom   6O    basis set group =>   2
Atom   7O    basis set group =>   2
Atom   8C    basis set group =>   1
Atom   9C    basis set group =>   1
Atom  10N    basis set group =>   3
Atom  11H    basis set group =>   4
Atom  12H    basis set group =>   4
Atom  13H    basis set group =>   4
Atom  14H    basis set group =>   4
Atom  15H    basis set group =>   4
Atom  16H    basis set group =>   4
Atom  17H    basis set group =>   4
Atom  18H    basis set group =>   4
Atom  19H    basis set group =>   4
Atom  20H    basis set group =>   4
Atom  21H    basis set group =>   4


           ************************************************************
           *        Program running with 8 parallel MPI-processes     *
           *              working on a common directory               *
           ************************************************************
------------------------------------------------------------------------------
                           ORCA GTO INTEGRAL CALCULATION
                           -- RI-GTO INTEGRALS CHOSEN --
------------------------------------------------------------------------------
------------------------------------------------------------------------------
                   ___                                                        
                  /   \      - P O W E R E D   B Y -                         
                 /     \                                                     
                 |  |  |   _    _      __       _____    __    __             
                 |  |  |  | |  | |    /  \     |  _  \  |  |  /  |          
                  \  \/   | |  | |   /    \    | | | |  |  | /  /          
                 / \  \   | |__| |  /  /\  \   | |_| |  |  |/  /          
                |  |  |   |  __  | /  /__\  \  |    /   |      \           
                |  |  |   | |  | | |   __   |  |    \   |  |\   \          
                \     /   | |  | | |  |  |  |  | |\  \  |  | \   \       
                 \___/    |_|  |_| |__|  |__|  |_| \__\ |__|  \__/        
                                                                              
                      - O R C A' S   B I G   F R I E N D -                    
                                      &                                       
                       - I N T E G R A L  F E E D E R -                       
                                                                              
 v1 FN, 2020, v2 2021                                                         
------------------------------------------------------------------------------


Reading SHARK input file M00016.SHARKINP.tmp ... ok
----------------------
SHARK INTEGRAL PACKAGE
----------------------

Number of atoms                             ...     22
Number of basis functions                   ...    407
Number of shells                            ...    165
Maximum angular momentum                    ...      3
Integral batch strategy                     ... SHARK/LIBINT Hybrid
RI-J (if used) integral strategy            ... SPLIT-RIJ (Revised 2003 algorithm where possible)
Printlevel                                  ...      1
Contraction scheme used                     ... SEGMENTED contraction
Coulomb Range Separation                    ... NOT USED
Exchange Range Separation                   ... NOT USED
Finite Nucleus Model                        ... NOT USED
Auxiliary Coulomb fitting basis             ... AVAILABLE
   # of basis functions in Aux-J            ...    660
   # of shells in Aux-J                     ...    220
   Maximum angular momentum in Aux-J        ...      4
Auxiliary J/K fitting basis                 ... NOT available
Auxiliary Correlation fitting basis         ... NOT available
Auxiliary 'external' fitting basis          ... NOT available
Integral threshold                          ...     2.500000e-11
Primitive cut-off                           ...     2.500000e-12
Primitive pair pre-selection threshold      ...     2.500000e-12

Calculating pre-screening integrals         ... done (  0.1 sec) Dimension = 165
Organizing shell pair data                  ... done (  0.1 sec)
Shell pair information
Total number of shell pairs                 ...     13695
Shell pairs after pre-screening             ...     11662
Total number of primitive shell pairs       ...     41316
Primitive shell pairs kept                  ...     25457
          la=0 lb=0:   3213 shell pairs
          la=1 lb=0:   3344 shell pairs
          la=1 lb=1:    894 shell pairs
          la=2 lb=0:   1644 shell pairs
          la=2 lb=1:    861 shell pairs
          la=2 lb=2:    221 shell pairs
          la=3 lb=0:    794 shell pairs
          la=3 lb=1:    425 shell pairs
          la=3 lb=2:    208 shell pairs
          la=3 lb=3:     58 shell pairs

Calculating one electron integrals          ... done (  0.0 sec)
Calculating RI/J V-Matrix + Cholesky decomp.... done (  0.0 sec)
Calculating Nuclear repulsion               ... done (  0.0 sec) ENN=    602.990413474202 Eh

SHARK setup successfully completed in   0.2 seconds

Maximum memory used throughout the entire GTOINT-calculation: 20.0 MB


           ************************************************************
           *        Program running with 8 parallel MPI-processes     *
           *              working on a common directory               *
           ************************************************************
-------------------------------------------------------------------------------
                                 ORCA SCF
-------------------------------------------------------------------------------

------------
SCF SETTINGS
------------
Hamiltonian:
 Density Functional     Method          .... DFT(GTOs)
 Exchange Functional    Exchange        .... PBE
   PBE kappa parameter   XKappa         ....  0.804000
   PBE mue parameter    XMuePBE         ....  0.219520
 Correlation Functional Correlation     .... PBE
   PBE beta parameter  CBetaPBE         ....  0.066725
 LDA part of GGA corr.  LDAOpt          .... PW91-LDA
 Gradients option       PostSCFGGA      .... off
   Density functional embedding theory  .... OFF
   NL short-range parameter             ....  6.400000
 RI-approximation to the Coulomb term is turned on
   Number of AuxJ basis functions       .... 660


General Settings:
 Integral files         IntName         .... M00016
 Hartree-Fock type      HFTyp           .... RHF
 Total Charge           Charge          ....    0
 Multiplicity           Mult            ....    1
 Number of Electrons    NEL             ....   82
 Basis Dimension        Dim             ....  407
 Nuclear Repulsion      ENuc            ....    602.9904134742 Eh

Convergence Acceleration:
 DIIS                   CNVDIIS         .... on
   Start iteration      DIISMaxIt       ....    12
   Startup error        DIISStart       ....  0.200000
   # of expansion vecs  DIISMaxEq       ....     5
   Bias factor          DIISBfac        ....   1.050
   Max. coefficient     DIISMaxC        ....  10.000
 Trust-Rad. Augm. Hess. CNVTRAH         .... auto
   Auto Start mean grad. ratio tolernc. ....  1.125000
   Auto Start start iteration           ....    20
   Auto Start num. interpolation iter.  ....    10
   Max. Number of Micro iterations      ....    16
   Max. Number of Macro iterations      .... Maxiter - #DIIS iter
   Number of Davidson start vectors     ....     2
   Converg. threshold I  (grad. norm)   ....   1.000e-05
   Converg. threshold II (energy diff.) ....   1.000e-08
   Grad. Scal. Fac. for Micro threshold ....   0.100
   Minimum threshold for Micro iter.    ....   0.010
   NR start threshold (gradient norm)   ....   0.001
   Initial trust radius                 ....   0.400
   Minimum AH scaling param. (alpha)    ....   1.000
   Maximum AH scaling param. (alpha)    .... 1000.000
   Orbital update algorithm             .... Taylor
   White noise on init. David. guess    .... on
   Maximum white noise                  ....   0.010
   Quad. conv. algorithm                .... NR
 SOSCF                  CNVSOSCF        .... on
   Start iteration      SOSCFMaxIt      ....   150
   Startup grad/error   SOSCFStart      ....  0.003300
 Level Shifting         CNVShift        .... on
   Level shift para.    LevelShift      ....    0.2500
   Turn off err/grad.   ShiftErr        ....    0.0010
 Zerner damping         CNVZerner       .... off
 Static damping         CNVDamp         .... on
   Fraction old density DampFac         ....    0.7000
   Max. Damping (<1)    DampMax         ....    0.9800
   Min. Damping (>=0)   DampMin         ....    0.0000
   Turn off err/grad.   DampErr         ....    0.1000
 Fernandez-Rico         CNVRico         .... off

SCF Procedure:
 Maximum # iterations   MaxIter         ....   125
 SCF integral mode      SCFMode         .... Direct
   Integral package                     .... SHARK and LIBINT hybrid scheme
 Reset frequency        DirectResetFreq ....    20
 Integral Threshold     Thresh          ....  2.500e-11 Eh
 Primitive CutOff       TCut            ....  2.500e-12 Eh

Convergence Tolerance:
 Convergence Check Mode ConvCheckMode   .... Total+1el-Energy
 Convergence forced     ConvForced      .... 0
 Energy Change          TolE            ....  1.000e-08 Eh
 1-El. energy change                    ....  1.000e-05 Eh
 Orbital Gradient       TolG            ....  1.000e-05
 Orbital Rotation angle TolX            ....  1.000e-05
 DIIS Error             TolErr          ....  5.000e-07


Diagonalization of the overlap matrix:
Smallest eigenvalue                        ... 8.860e-06
Time for diagonalization                   ...    0.030 sec
Threshold for overlap eigenvalues          ... 1.000e-08
Number of eigenvalues below threshold      ... 0
Time for construction of square roots      ...    0.018 sec
Total time needed                          ...    0.049 sec

Time for model grid setup =    0.086 sec

------------------------------
INITIAL GUESS: MODEL POTENTIAL
------------------------------
Loading Hartree-Fock densities                     ... done
Calculating cut-offs                               ... done
Initializing the effective Hamiltonian             ... done
Setting up the integral package (SHARK)            ... done
Starting the Coulomb interaction                   ... done (   0.1 sec)
Reading the grid                                   ... done
Mapping shells                                     ... done
Starting the XC term evaluation                    ... done (   0.1 sec)
  promolecular density results
     # of electrons  =     82.002898592
     EX              =    -67.041652358
     EC              =     -2.738330507
     EX+EC           =    -69.779982865
Transforming the Hamiltonian                       ... done (   0.0 sec)
Diagonalizing the Hamiltonian                      ... done (   0.0 sec)
Back transforming the eigenvectors                 ... done (   0.0 sec)
Now organizing SCF variables                       ... done
                      ------------------
                      INITIAL GUESS DONE (   0.4 sec)
                      ------------------
-------------------
DFT GRID GENERATION
-------------------

General Integration Accuracy     IntAcc      ... 4.388
Radial Grid Type                 RadialGrid  ... OptM3 with GC (2021)
Angular Grid (max. ang.)         AngularGrid ... 4 (Lebedev-302)
Angular grid pruning method      GridPruning ... 4 (adaptive)
Weight generation scheme         WeightScheme... Becke
Basis function cutoff            BFCut       ... 1.0000e-11
Integration weight cutoff        WCut        ... 1.0000e-14
Angular grids for H and He will be reduced by one unit
Partially contracted basis set               ... off
Rotationally invariant grid construction     ... off

Total number of grid points                  ...   101333
Total number of batches                      ...     1593
Average number of points per batch           ...       63
Average number of grid points per atom       ...     4606
Time for grid setup =    0.493 sec

--------------
SCF ITERATIONS
--------------
ITER       Energy         Delta-E        Max-DP      RMS-DP      [F,P]     Damp
               ***  Starting incremental Fock matrix formation  ***
  0   -515.9275176329   0.000000000000 0.31484522  0.00242475  0.2594162 0.7000
  1   -516.0850293441  -0.157511711152 0.30596828  0.00232759  0.0999425 0.7000
                               ***Turning on DIIS***
  2   -516.1367961163  -0.051766772226 0.35889849  0.00333546  0.0230561 0.0000
  3   -516.2184126415  -0.081616525131 0.28377453  0.00195329  0.0633594 0.0000
  4   -516.2411446885  -0.022732047003 0.08521647  0.00069675  0.0125772 0.0000
  5   -516.2426736940  -0.001529005501 0.04047088  0.00032908  0.0053975 0.0000
                      *** Initiating the SOSCF procedure ***
                           *** Shutting down DIIS ***
                      *** Re-Reading the Fockian *** 
                      *** Removing any level shift *** 
ITER      Energy       Delta-E        Grad      Rot      Max-DP    RMS-DP
  6   -516.24280064  -0.0001269447  0.000467  0.000467  0.016663  0.000122
               *** Restarting incremental Fock matrix formation ***
  7   -516.24280867  -0.0000080296  0.000288  0.001494  0.007370  0.000090
  8   -516.24280054   0.0000081319  0.000777  0.001550  0.004003  0.000030
  9   -516.24281160  -0.0000110607  0.000116  0.000612  0.001021  0.000012
 10   -516.24281072   0.0000008805  0.000137  0.000266  0.001321  0.000008
 11   -516.24281188  -0.0000011591  0.000013  0.000059  0.000212  0.000003
 12   -516.24281187   0.0000000103  0.000023  0.000043  0.000096  0.000001
 13   -516.24281189  -0.0000000227  0.000003  0.000018  0.000189  0.000002
 14   -516.24281188   0.0000000084  0.000005  0.000011  0.000040  0.000001
                  ***Gradient check signals convergence***
              ***Rediagonalizing the Fockian in SOSCF/NRSCF***

               *****************************************************
               *                     SUCCESS                       *
               *           SCF CONVERGED AFTER  15 CYCLES          *
               *****************************************************


----------------
TOTAL SCF ENERGY
----------------

Total Energy       :         -516.24281189 Eh          -14047.68108 eV

Components:
Nuclear Repulsion  :          602.99041347 Eh           16408.20333 eV
Electronic Energy  :        -1119.23322536 Eh          -30455.88441 eV
One Electron Energy:        -1897.70502927 Eh          -51639.17913 eV
Two Electron Energy:          778.47180391 Eh           21183.29472 eV

Virial components:
Potential Energy   :        -1030.35296406 Eh          -28037.32954 eV
Kinetic Energy     :          514.11015217 Eh           13989.64846 eV
Virial Ratio       :            2.00414825


DFT components:
N(Alpha)           :       41.000000089608 electrons
N(Beta)            :       41.000000089608 electrons
N(Total)           :       82.000000179216 electrons
E(X)               :      -68.336225337439 Eh       
E(C)               :       -2.743360390320 Eh       
E(XC)              :      -71.079585727759 Eh       
DFET-embed. en.    :        0.000000000000 Eh       

---------------
SCF CONVERGENCE
---------------

  Last Energy change         ...   -8.6170e-09  Tolerance :   1.0000e-08
  Last MAX-Density change    ...    1.8870e-04  Tolerance :   1.0000e-07
  Last RMS-Density change    ...    1.8962e-06  Tolerance :   5.0000e-09
  Last Orbital Gradient      ...    1.8557e-06  Tolerance :   1.0000e-05
  Last Orbital Rotation      ...    7.3310e-06  Tolerance :   1.0000e-05

             **** THE GBW FILE WAS UPDATED (M00016.gbw) ****
             **** DENSITY M00016.scfp WAS UPDATED ****
             **** ENERGY FILE WAS UPDATED (M00016.en.tmp) ****
             **** THE GBW FILE WAS UPDATED (M00016.gbw) ****
             **** DENSITY M00016.scfp WAS UPDATED ****
----------------
ORBITAL ENERGIES
----------------

  NO   OCC          E(Eh)            E(eV) 
   0   2.0000     -18.798976      -511.5461 
   1   2.0000     -18.780679      -511.0483 
   2   2.0000     -13.956666      -379.7802 
   3   2.0000      -9.944606      -270.6065 
   4   2.0000      -9.941193      -270.5136 
   5   2.0000      -9.900424      -269.4042 
   6   2.0000      -9.891819      -269.1701 
   7   2.0000      -9.891769      -269.1687 
   8   2.0000      -9.883323      -268.9389 
   9   2.0000      -9.882437      -268.9148 
  10   2.0000      -9.880372      -268.8586 
  11   2.0000      -0.998583       -27.1728 
  12   2.0000      -0.968087       -26.3430 
  13   2.0000      -0.803163       -21.8552 
  14   2.0000      -0.777276       -21.1507 
  15   2.0000      -0.699786       -19.0421 
  16   2.0000      -0.676828       -18.4174 
  17   2.0000      -0.639481       -17.4012 
  18   2.0000      -0.584079       -15.8936 
  19   2.0000      -0.560154       -15.2426 
  20   2.0000      -0.535130       -14.5616 
  21   2.0000      -0.505787       -13.7632 
  22   2.0000      -0.477445       -12.9919 
  23   2.0000      -0.442223       -12.0335 
  24   2.0000      -0.433005       -11.7827 
  25   2.0000      -0.410095       -11.1593 
  26   2.0000      -0.397672       -10.8212 
  27   2.0000      -0.393076       -10.6961 
  28   2.0000      -0.381691       -10.3864 
  29   2.0000      -0.373767       -10.1707 
  30   2.0000      -0.368166       -10.0183 
  31   2.0000      -0.347199        -9.4478 
  32   2.0000      -0.331442        -9.0190 
  33   2.0000      -0.328755        -8.9459 
  34   2.0000      -0.312456        -8.5024 
  35   2.0000      -0.303741        -8.2652 
  36   2.0000      -0.292628        -7.9628 
  37   2.0000      -0.287487        -7.8229 
  38   2.0000      -0.218045        -5.9333 
  39   2.0000      -0.197936        -5.3861 
  40   2.0000      -0.184587        -5.0229 
  41   0.0000      -0.039753        -1.0817 
  42   0.0000      -0.025395        -0.6910 
  43   0.0000      -0.013046        -0.3550 
  44   0.0000       0.016757         0.4560 
  45   0.0000       0.026103         0.7103 
  46   0.0000       0.041651         1.1334 
  47   0.0000       0.049937         1.3589 
  48   0.0000       0.056474         1.5367 
  49   0.0000       0.076919         2.0931 
  50   0.0000       0.082550         2.2463 
  51   0.0000       0.098851         2.6899 
  52   0.0000       0.104084         2.8323 
  53   0.0000       0.114365         3.1120 
  54   0.0000       0.115880         3.1532 
  55   0.0000       0.131569         3.5802 
  56   0.0000       0.137933         3.7533 
  57   0.0000       0.148085         4.0296 
  58   0.0000       0.159878         4.3505 
  59   0.0000       0.168720         4.5911 
  60   0.0000       0.185704         5.0533 
  61   0.0000       0.194110         5.2820 
  62   0.0000       0.204256         5.5581 
  63   0.0000       0.211237         5.7481 
  64   0.0000       0.216825         5.9001 
  65   0.0000       0.220963         6.0127 
  66   0.0000       0.237102         6.4519 
  67   0.0000       0.241588         6.5739 
  68   0.0000       0.256526         6.9804 
  69   0.0000       0.262446         7.1415 
  70   0.0000       0.266983         7.2650 
  71   0.0000       0.274485         7.4691 
  72   0.0000       0.281828         7.6689 
  73   0.0000       0.291641         7.9359 
  74   0.0000       0.303390         8.2557 
  75   0.0000       0.308591         8.3972 
  76   0.0000       0.315464         8.5842 
  77   0.0000       0.319898         8.7049 
  78   0.0000       0.325839         8.8665 
  79   0.0000       0.332230         9.0404 
  80   0.0000       0.335413         9.1271 
  81   0.0000       0.339635         9.2419 
  82   0.0000       0.351710         9.5705 
  83   0.0000       0.365169         9.9368 
  84   0.0000       0.371475        10.1084 
  85   0.0000       0.378711        10.3053 
  86   0.0000       0.392516        10.6809 
  87   0.0000       0.393935        10.7195 
  88   0.0000       0.404641        11.0108 
  89   0.0000       0.407546        11.0899 
  90   0.0000       0.421120        11.4593 
  91   0.0000       0.423147        11.5144 
  92   0.0000       0.427979        11.6459 
  93   0.0000       0.447021        12.1641 
  94   0.0000       0.448578        12.2064 
  95   0.0000       0.460444        12.5293 
  96   0.0000       0.469755        12.7827 
  97   0.0000       0.479859        13.0576 
  98   0.0000       0.480956        13.0875 
  99   0.0000       0.490249        13.3403 
 100   0.0000       0.494795        13.4641 
 101   0.0000       0.517601        14.0846 
 102   0.0000       0.520820        14.1722 
 103   0.0000       0.545484        14.8434 
 104   0.0000       0.561104        15.2684 
 105   0.0000       0.566121        15.4049 
 106   0.0000       0.576223        15.6798 
 107   0.0000       0.578186        15.7332 
 108   0.0000       0.590141        16.0586 
 109   0.0000       0.595933        16.2162 
 110   0.0000       0.601921        16.3791 
 111   0.0000       0.617405        16.8004 
 112   0.0000       0.631371        17.1805 
 113   0.0000       0.650913        17.7122 
 114   0.0000       0.670789        18.2531 
 115   0.0000       0.686214        18.6728 
 116   0.0000       0.691768        18.8240 
 117   0.0000       0.708943        19.2913 
 118   0.0000       0.721602        19.6358 
 119   0.0000       0.735260        20.0074 
 120   0.0000       0.738829        20.1046 
 121   0.0000       0.762535        20.7496 
 122   0.0000       0.765800        20.8385 
 123   0.0000       0.773751        21.0548 
 124   0.0000       0.790743        21.5172 
 125   0.0000       0.812871        22.1193 
 126   0.0000       0.818660        22.2769 
 127   0.0000       0.824299        22.4303 
 128   0.0000       0.837155        22.7801 
 129   0.0000       0.843817        22.9614 
 130   0.0000       0.868420        23.6309 
 131   0.0000       0.881020        23.9738 
 132   0.0000       0.898577        24.4515 
 133   0.0000       0.927250        25.2317 
 134   0.0000       0.950308        25.8592 
 135   0.0000       0.979921        26.6650 
 136   0.0000       0.984048        26.7773 
 137   0.0000       1.008323        27.4379 
 138   0.0000       1.015095        27.6221 
 139   0.0000       1.032004        28.0823 
 140   0.0000       1.055674        28.7263 
 141   0.0000       1.060315        28.8526 
 142   0.0000       1.068434        29.0736 
 143   0.0000       1.088607        29.6225 
 144   0.0000       1.125931        30.6381 
 145   0.0000       1.133452        30.8428 
 146   0.0000       1.148038        31.2397 
 147   0.0000       1.160284        31.5729 
 148   0.0000       1.164155        31.6783 
 149   0.0000       1.178564        32.0704 
 150   0.0000       1.198191        32.6044 
 151   0.0000       1.203356        32.7450 
 152   0.0000       1.236850        33.6564 
 153   0.0000       1.243372        33.8339 
 154   0.0000       1.259595        34.2753 
 155   0.0000       1.266732        34.4695 
 156   0.0000       1.277521        34.7631 
 157   0.0000       1.283206        34.9178 
 158   0.0000       1.315030        35.7838 
 159   0.0000       1.324065        36.0296 
 160   0.0000       1.331274        36.2258 
 161   0.0000       1.361807        37.0566 
 162   0.0000       1.369052        37.2538 
 163   0.0000       1.375111        37.4187 
 164   0.0000       1.401804        38.1450 
 165   0.0000       1.411506        38.4090 
 166   0.0000       1.440077        39.1865 
 167   0.0000       1.461532        39.7703 
 168   0.0000       1.467488        39.9324 
 169   0.0000       1.494477        40.6668 
 170   0.0000       1.506095        40.9829 
 171   0.0000       1.519871        41.3578 
 172   0.0000       1.532932        41.7132 
 173   0.0000       1.548907        42.1479 
 174   0.0000       1.556569        42.3564 
 175   0.0000       1.584108        43.1058 
 176   0.0000       1.593910        43.3725 
 177   0.0000       1.603879        43.6438 
 178   0.0000       1.620357        44.0921 
 179   0.0000       1.626345        44.2551 
 180   0.0000       1.641896        44.6782 
 181   0.0000       1.653979        45.0071 
 182   0.0000       1.668623        45.4055 
 183   0.0000       1.677575        45.6491 
 184   0.0000       1.679110        45.6909 
 185   0.0000       1.696710        46.1698 
 186   0.0000       1.730355        47.0854 
 187   0.0000       1.740875        47.3716 
 188   0.0000       1.757653        47.8282 
 189   0.0000       1.781881        48.4874 
 190   0.0000       1.791149        48.7397 
 191   0.0000       1.808225        49.2043 
 192   0.0000       1.813448        49.3464 
 193   0.0000       1.830797        49.8185 
 194   0.0000       1.838389        50.0251 
 195   0.0000       1.848264        50.2938 
 196   0.0000       1.871215        50.9184 
 197   0.0000       1.904858        51.8338 
 198   0.0000       1.916701        52.1561 
 199   0.0000       1.920065        52.2476 
 200   0.0000       1.936986        52.7081 
 201   0.0000       1.953942        53.1695 
 202   0.0000       1.968211        53.5578 
 203   0.0000       1.993108        54.2352 
 204   0.0000       1.994078        54.2616 
 205   0.0000       2.020132        54.9706 
 206   0.0000       2.029734        55.2319 
 207   0.0000       2.040945        55.5369 
 208   0.0000       2.056666        55.9647 
 209   0.0000       2.071748        56.3751 
 210   0.0000       2.080547        56.6146 
 211   0.0000       2.091999        56.9262 
 212   0.0000       2.106225        57.3133 
 213   0.0000       2.116805        57.6012 
 214   0.0000       2.155867        58.6641 
 215   0.0000       2.167324        58.9759 
 216   0.0000       2.179375        59.3038 
 217   0.0000       2.202942        59.9451 
 218   0.0000       2.231160        60.7129 
 219   0.0000       2.235939        60.8430 
 220   0.0000       2.241348        60.9902 
 221   0.0000       2.274785        61.9000 
 222   0.0000       2.304887        62.7192 
 223   0.0000       2.327293        63.3288 
 224   0.0000       2.348363        63.9022 
 225   0.0000       2.355698        64.1018 
 226   0.0000       2.367256        64.4163 
 227   0.0000       2.395426        65.1829 
 228   0.0000       2.401327        65.3434 
 229   0.0000       2.412775        65.6549 
 230   0.0000       2.416769        65.7636 
 231   0.0000       2.440290        66.4037 
 232   0.0000       2.469564        67.2002 
 233   0.0000       2.488579        67.7177 
 234   0.0000       2.506146        68.1957 
 235   0.0000       2.517655        68.5089 
 236   0.0000       2.533857        68.9498 
 237   0.0000       2.546054        69.2817 
 238   0.0000       2.565790        69.8187 
 239   0.0000       2.574851        70.0652 
 240   0.0000       2.585276        70.3489 
 241   0.0000       2.599231        70.7287 
 242   0.0000       2.620713        71.3132 
 243   0.0000       2.635826        71.7245 
 244   0.0000       2.641208        71.8709 
 245   0.0000       2.656032        72.2743 
 246   0.0000       2.668117        72.6032 
 247   0.0000       2.678306        72.8804 
 248   0.0000       2.691602        73.2422 
 249   0.0000       2.701872        73.5217 
 250   0.0000       2.715422        73.8904 
 251   0.0000       2.746572        74.7380 
 252   0.0000       2.748272        74.7843 
 253   0.0000       2.764653        75.2300 
 254   0.0000       2.776494        75.5522 
 255   0.0000       2.784712        75.7759 
 256   0.0000       2.793208        76.0071 
 257   0.0000       2.809694        76.4557 
 258   0.0000       2.823340        76.8270 
 259   0.0000       2.837564        77.2140 
 260   0.0000       2.839873        77.2769 
 261   0.0000       2.866938        78.0133 
 262   0.0000       2.885277        78.5124 
 263   0.0000       2.899021        78.8864 
 264   0.0000       2.929089        79.7046 
 265   0.0000       2.939151        79.9784 
 266   0.0000       2.940370        80.0115 
 267   0.0000       2.965697        80.7007 
 268   0.0000       2.977194        81.0136 
 269   0.0000       2.984006        81.1989 
 270   0.0000       3.012551        81.9757 
 271   0.0000       3.018466        82.1366 
 272   0.0000       3.026823        82.3640 
 273   0.0000       3.047414        82.9244 
 274   0.0000       3.084465        83.9326 
 275   0.0000       3.087600        84.0179 
 276   0.0000       3.103070        84.4388 
 277   0.0000       3.110921        84.6525 
 278   0.0000       3.126986        85.0896 
 279   0.0000       3.130829        85.1942 
 280   0.0000       3.141542        85.4857 
 281   0.0000       3.154167        85.8293 
 282   0.0000       3.165664        86.1421 
 283   0.0000       3.176081        86.4255 
 284   0.0000       3.190513        86.8183 
 285   0.0000       3.197957        87.0208 
 286   0.0000       3.206953        87.2656 
 287   0.0000       3.228968        87.8647 
 288   0.0000       3.253532        88.5331 
 289   0.0000       3.259471        88.6947 
 290   0.0000       3.266241        88.8789 
 291   0.0000       3.299191        89.7756 
 292   0.0000       3.301817        89.8470 
 293   0.0000       3.323504        90.4371 
 294   0.0000       3.325172        90.4825 
 295   0.0000       3.337086        90.8067 
 296   0.0000       3.348349        91.1132 
 297   0.0000       3.361254        91.4644 
 298   0.0000       3.375300        91.8466 
 299   0.0000       3.394096        92.3580 
 300   0.0000       3.409998        92.7908 
 301   0.0000       3.430143        93.3389 
 302   0.0000       3.442167        93.6661 
 303   0.0000       3.448198        93.8302 
 304   0.0000       3.461061        94.1802 
 305   0.0000       3.497874        95.1820 
 306   0.0000       3.517123        95.7058 
 307   0.0000       3.563003        96.9542 
 308   0.0000       3.576980        97.3346 
 309   0.0000       3.603818        98.0649 
 310   0.0000       3.634573        98.9018 
 311   0.0000       3.648210        99.2728 
 312   0.0000       3.694798       100.5406 
 313   0.0000       3.698787       100.6491 
 314   0.0000       3.752125       102.1005 
 315   0.0000       3.767507       102.5191 
 316   0.0000       3.778763       102.8254 
 317   0.0000       3.809855       103.6714 
 318   0.0000       3.831253       104.2537 
 319   0.0000       3.838360       104.4471 
 320   0.0000       3.857548       104.9692 
 321   0.0000       3.866868       105.2228 
 322   0.0000       3.906542       106.3024 
 323   0.0000       3.914566       106.5208 
 324   0.0000       3.922700       106.7421 
 325   0.0000       3.959453       107.7422 
 326   0.0000       4.007636       109.0533 
 327   0.0000       4.025593       109.5419 
 328   0.0000       4.052978       110.2871 
 329   0.0000       4.080481       111.0355 
 330   0.0000       4.101214       111.5997 
 331   0.0000       4.108078       111.7865 
 332   0.0000       4.120069       112.1128 
 333   0.0000       4.137783       112.5948 
 334   0.0000       4.140545       112.6699 
 335   0.0000       4.195627       114.1688 
 336   0.0000       4.210817       114.5822 
 337   0.0000       4.227286       115.0303 
 338   0.0000       4.251155       115.6798 
 339   0.0000       4.262420       115.9863 
 340   0.0000       4.331921       117.8776 
 341   0.0000       4.348606       118.3316 
 342   0.0000       4.354515       118.4924 
 343   0.0000       4.383866       119.2911 
 344   0.0000       4.402733       119.8045 
 345   0.0000       4.480009       121.9072 
 346   0.0000       4.485554       122.0581 
 347   0.0000       4.542165       123.5986 
 348   0.0000       4.565665       124.2381 
 349   0.0000       4.603813       125.2761 
 350   0.0000       4.642854       126.3385 
 351   0.0000       4.688842       127.5899 
 352   0.0000       4.719911       128.4353 
 353   0.0000       4.764483       129.6482 
 354   0.0000       4.772092       129.8552 
 355   0.0000       4.792616       130.4137 
 356   0.0000       4.798164       130.5647 
 357   0.0000       4.835397       131.5779 
 358   0.0000       4.868640       132.4824 
 359   0.0000       4.904730       133.4645 
 360   0.0000       4.974795       135.3711 
 361   0.0000       4.984261       135.6286 
 362   0.0000       5.019968       136.6003 
 363   0.0000       5.030552       136.8883 
 364   0.0000       5.105250       138.9209 
 365   0.0000       5.128532       139.5544 
 366   0.0000       5.171886       140.7342 
 367   0.0000       5.178619       140.9174 
 368   0.0000       5.204106       141.6109 
 369   0.0000       5.275587       143.5560 
 370   0.0000       5.292626       144.0197 
 371   0.0000       5.328898       145.0067 
 372   0.0000       5.379791       146.3915 
 373   0.0000       5.383052       146.4803 
 374   0.0000       5.416377       147.3871 
 375   0.0000       5.474017       148.9556 
 376   0.0000       5.523777       150.3096 
 377   0.0000       5.547337       150.9507 
 378   0.0000       5.672478       154.3560 
 379   0.0000       5.751547       156.5075 
 380   0.0000       5.764331       156.8554 
 381   0.0000       5.870315       159.7394 
 382   0.0000       6.073431       165.2665 
 383   0.0000       6.144631       167.2039 
 384   0.0000       6.253052       170.1542 
 385   0.0000       6.257644       170.2791 
 386   0.0000       6.302551       171.5011 
 387   0.0000       6.425440       174.8451 
 388   0.0000       6.521013       177.4458 
 389   0.0000       6.624029       180.2490 
 390   0.0000       6.662578       181.2980 
 391   0.0000       6.694126       182.1564 
 392   0.0000       6.852680       186.4709 
 393   0.0000       6.872093       186.9992 
 394   0.0000       7.092140       192.9870 
 395   0.0000       7.215381       196.3405 
 396   0.0000      21.899586       595.9180 
 397   0.0000      22.168910       603.2467 
 398   0.0000      22.273758       606.0998 
 399   0.0000      22.444078       610.7344 
 400   0.0000      22.489894       611.9811 
 401   0.0000      22.612449       615.3160 
 402   0.0000      22.721205       618.2754 
 403   0.0000      23.141818       629.7209 
 404   0.0000      31.633801       860.7995 
 405   0.0000      43.437904      1182.0055 
 406   0.0000      43.667132      1188.2431 

                    ********************************
                    * MULLIKEN POPULATION ANALYSIS *
                    ********************************

-----------------------
MULLIKEN ATOMIC CHARGES
-----------------------
   0 C :   -0.342549
   1 C :   -0.182494
   2 C :    0.139513
   3 C :    0.233132
   4 C :   -0.234433
   5 C :    0.219592
   6 O :   -0.404763
   7 O :   -0.348156
   8 C :   -0.234679
   9 C :   -0.107189
  10 N :   -0.452721
  11 H :    0.086144
  12 H :    0.094925
  13 H :    0.094255
  14 H :    0.315753
  15 H :    0.315948
  16 H :    0.088315
  17 H :    0.109589
  18 H :    0.101335
  19 H :    0.101805
  20 H :    0.194585
  21 H :    0.212095
Sum of atomic charges:   -0.0000000

--------------------------------
MULLIKEN REDUCED ORBITAL CHARGES
--------------------------------
  0 C s       :     3.361077  s :     3.361077
      pz      :     1.044217  p :     2.895709
      px      :     0.963384
      py      :     0.888108
      dz2     :     0.005943  d :     0.078742
      dxz     :     0.019783
      dyz     :     0.008829
      dx2y2   :     0.023990
      dxy     :     0.020198
      f0      :     0.001150  f :     0.007021
      f+1     :     0.001042
      f-1     :     0.000483
      f+2     :     0.000675
      f-2     :     0.000863
      f+3     :     0.000839
      f-3     :     0.001969
  1 C s       :     3.191653  s :     3.191653
      pz      :     1.040989  p :     2.906841
      px      :     0.953624
      py      :     0.912228
      dz2     :     0.007810  d :     0.077070
      dxz     :     0.019583
      dyz     :     0.010641
      dx2y2   :     0.014927
      dxy     :     0.024109
      f0      :     0.001174  f :     0.006930
      f+1     :     0.000969
      f-1     :     0.000497
      f+2     :     0.000736
      f-2     :     0.000855
      f+3     :     0.000857
      f-3     :     0.001841
  2 C s       :     3.060068  s :     3.060068
      pz      :     0.973388  p :     2.617949
      px      :     0.837705
      py      :     0.806856
      dz2     :     0.010968  d :     0.167243
      dxz     :     0.032805
      dyz     :     0.035419
      dx2y2   :     0.054259
      dxy     :     0.033791
      f0      :     0.001878  f :     0.015227
      f+1     :     0.001438
      f-1     :     0.001313
      f+2     :     0.001155
      f-2     :     0.002506
      f+3     :     0.002345
      f-3     :     0.004592
  3 C s       :     3.145526  s :     3.145526
      pz      :     0.906165  p :     2.479564
      px      :     0.796589
      py      :     0.776810
      dz2     :     0.009865  d :     0.132347
      dxz     :     0.022279
      dyz     :     0.026130
      dx2y2   :     0.038454
      dxy     :     0.035618
      f0      :     0.001198  f :     0.009430
      f+1     :     0.000891
      f-1     :     0.000757
      f+2     :     0.000978
      f-2     :     0.001372
      f+3     :     0.001308
      f-3     :     0.002926
  4 C s       :     3.232858  s :     3.232858
      pz      :     1.012574  p :     2.910395
      px      :     0.970015
      py      :     0.927807
      dz2     :     0.008634  d :     0.084254
      dxz     :     0.016579
      dyz     :     0.009967
      dx2y2   :     0.016514
      dxy     :     0.032560
      f0      :     0.000937  f :     0.006926
      f+1     :     0.001046
      f-1     :     0.000761
      f+2     :     0.000966
      f-2     :     0.000474
      f+3     :     0.000961
      f-3     :     0.001781
  5 C s       :     3.087609  s :     3.087609
      pz      :     0.980880  p :     2.519219
      px      :     0.701058
      py      :     0.837281
      dz2     :     0.016019  d :     0.158879
      dxz     :     0.035564
      dyz     :     0.024892
      dx2y2   :     0.031221
      dxy     :     0.051183
      f0      :     0.001799  f :     0.014701
      f+1     :     0.001926
      f-1     :     0.000777
      f+2     :     0.002216
      f-2     :     0.001501
      f+3     :     0.002152
      f-3     :     0.004329
  6 O s       :     3.769054  s :     3.769054
      pz      :     1.779145  p :     4.603782
      px      :     1.392664
      py      :     1.431973
      dz2     :     0.004000  d :     0.030268
      dxz     :     0.006240
      dyz     :     0.002067
      dx2y2   :     0.012119
      dxy     :     0.005841
      f0      :     0.000275  f :     0.001660
      f+1     :     0.000292
      f-1     :     0.000228
      f+2     :     0.000237
      f-2     :     0.000096
      f+3     :     0.000212
      f-3     :     0.000319
  7 O s       :     3.763667  s :     3.763667
      pz      :     1.767221  p :     4.550719
      px      :     1.292034
      py      :     1.491464
      dz2     :     0.003775  d :     0.032203
      dxz     :     0.003159
      dyz     :     0.006027
      dx2y2   :     0.009289
      dxy     :     0.009954
      f0      :     0.000299  f :     0.001567
      f+1     :     0.000250
      f-1     :     0.000200
      f+2     :     0.000105
      f-2     :     0.000190
      f+3     :     0.000174
      f-3     :     0.000350
  8 C s       :     3.195355  s :     3.195355
      pz      :     0.978556  p :     2.946064
      px      :     0.901682
      py      :     1.065826
      dz2     :     0.013923  d :     0.088067
      dxz     :     0.021396
      dyz     :     0.017717
      dx2y2   :     0.019888
      dxy     :     0.015143
      f0      :     0.000666  f :     0.005193
      f+1     :     0.000984
      f-1     :     0.000330
      f+2     :     0.001368
      f-2     :     0.000571
      f+3     :     0.000410
      f-3     :     0.000864
  9 C s       :     3.174339  s :     3.174339
      pz      :     0.891103  p :     2.816182
      px      :     0.997102
      py      :     0.927977
      dz2     :     0.030701  d :     0.109282
      dxz     :     0.021643
      dyz     :     0.024736
      dx2y2   :     0.019956
      dxy     :     0.012246
      f0      :     0.001044  f :     0.007386
      f+1     :     0.000559
      f-1     :     0.001483
      f+2     :     0.001756
      f-2     :     0.001533
      f+3     :     0.000590
      f-3     :     0.000421
 10 N s       :     3.513410  s :     3.513410
      pz      :     1.431504  p :     3.896963
      px      :     1.383847
      py      :     1.081612
      dz2     :     0.008617  d :     0.040247
      dxz     :     0.005934
      dyz     :     0.010125
      dx2y2   :     0.012353
      dxy     :     0.003217
      f0      :     0.000378  f :     0.002101
      f+1     :     0.000192
      f-1     :     0.000220
      f+2     :     0.000694
      f-2     :     0.000315
      f+3     :     0.000115
      f-3     :     0.000187
 11 H s       :     0.891786  s :     0.891786
      pz      :     0.005652  p :     0.022071
      px      :     0.004973
      py      :     0.011446
 12 H s       :     0.882870  s :     0.882870
      pz      :     0.005831  p :     0.022205
      px      :     0.004978
      py      :     0.011396
 13 H s       :     0.883692  s :     0.883692
      pz      :     0.005277  p :     0.022053
      px      :     0.006810
      py      :     0.009965
 14 H s       :     0.637834  s :     0.637834
      pz      :     0.016013  p :     0.046413
      px      :     0.011231
      py      :     0.019169
 15 H s       :     0.637006  s :     0.637006
      pz      :     0.016197  p :     0.047046
      px      :     0.018603
      py      :     0.012247
 16 H s       :     0.890246  s :     0.890246
      pz      :     0.008638  p :     0.021440
      px      :     0.004954
      py      :     0.007847
 17 H s       :     0.869167  s :     0.869167
      pz      :     0.006518  p :     0.021244
      px      :     0.004703
      py      :     0.010024
 18 H s       :     0.877854  s :     0.877854
      pz      :     0.004964  p :     0.020811
      px      :     0.011763
      py      :     0.004084
 19 H s       :     0.877397  s :     0.877397
      pz      :     0.005647  p :     0.020798
      px      :     0.004569
      py      :     0.010582
 20 H s       :     0.768883  s :     0.768883
      pz      :     0.010526  p :     0.036532
      px      :     0.010006
      py      :     0.016000
 21 H s       :     0.751490  s :     0.751490
      pz      :     0.012139  p :     0.036415
      px      :     0.017681
      py      :     0.006596


                     *******************************
                     * LOEWDIN POPULATION ANALYSIS *
                     *******************************

----------------------
LOEWDIN ATOMIC CHARGES
----------------------
   0 C :   -0.104451
   1 C :   -0.150018
   2 C :   -0.272454
   3 C :   -0.160000
   4 C :   -0.131703
   5 C :   -0.287886
   6 O :    0.076685
   7 O :    0.100467
   8 C :   -0.242841
   9 C :   -0.344244
  10 N :   -0.159565
  11 H :    0.151130
  12 H :    0.142566
  13 H :    0.146007
  14 H :    0.196292
  15 H :    0.197156
  16 H :    0.145926
  17 H :    0.140774
  18 H :    0.129508
  19 H :    0.130452
  20 H :    0.145324
  21 H :    0.150876

-------------------------------
LOEWDIN REDUCED ORBITAL CHARGES
-------------------------------
  0 C s       :     2.759054  s :     2.759054
      pz      :     0.933387  p :     2.940478
      px      :     1.015077
      py      :     0.992014
      dz2     :     0.028876  d :     0.362839
      dxz     :     0.067057
      dyz     :     0.032467
      dx2y2   :     0.126826
      dxy     :     0.107613
      f0      :     0.003550  f :     0.042081
      f+1     :     0.004964
      f-1     :     0.002761
      f+2     :     0.005253
      f-2     :     0.005236
      f+3     :     0.007800
      f-3     :     0.012517
  1 C s       :     2.763561  s :     2.763561
      pz      :     0.943501  p :     2.966033
      px      :     1.041260
      py      :     0.981272
      dz2     :     0.029256  d :     0.377327
      dxz     :     0.071421
      dyz     :     0.038017
      dx2y2   :     0.110312
      dxy     :     0.128322
      f0      :     0.003641  f :     0.043097
      f+1     :     0.004881
      f-1     :     0.002983
      f+2     :     0.005439
      f-2     :     0.005626
      f+3     :     0.007777
      f-3     :     0.012750
  2 C s       :     2.712748  s :     2.712748
      pz      :     0.903799  p :     2.790386
      px      :     0.980637
      py      :     0.905949
      dz2     :     0.058600  d :     0.674493
      dxz     :     0.101515
      dyz     :     0.119948
      dx2y2   :     0.197514
      dxy     :     0.196916
      f0      :     0.007314  f :     0.094827
      f+1     :     0.006542
      f-1     :     0.008650
      f+2     :     0.008124
      f-2     :     0.017222
      f+3     :     0.018725
      f-3     :     0.028251
  3 C s       :     2.715174  s :     2.715174
      pz      :     0.860785  p :     2.867337
      px      :     0.966506
      py      :     1.040046
      dz2     :     0.042481  d :     0.521047
      dxz     :     0.072511
      dyz     :     0.089648
      dx2y2   :     0.165623
      dxy     :     0.150783
      f0      :     0.003988  f :     0.056442
      f+1     :     0.004375
      f-1     :     0.004934
      f+2     :     0.005869
      f-2     :     0.008861
      f+3     :     0.009436
      f-3     :     0.018980
  4 C s       :     2.761699  s :     2.761699
      pz      :     0.934382  p :     2.947626
      px      :     1.014729
      py      :     0.998514
      dz2     :     0.037618  d :     0.380712
      dxz     :     0.060621
      dyz     :     0.037175
      dx2y2   :     0.100976
      dxy     :     0.144321
      f0      :     0.003010  f :     0.041666
      f+1     :     0.004265
      f-1     :     0.003805
      f+2     :     0.006952
      f-2     :     0.003530
      f+3     :     0.007703
      f-3     :     0.012402
  5 C s       :     2.712870  s :     2.712870
      pz      :     0.909591  p :     2.809027
      px      :     0.837205
      py      :     1.062231
      dz2     :     0.063752  d :     0.670581
      dxz     :     0.132697
      dyz     :     0.085881
      dx2y2   :     0.209094
      dxy     :     0.179157
      f0      :     0.006806  f :     0.095408
      f+1     :     0.011606
      f-1     :     0.005302
      f+2     :     0.016070
      f-2     :     0.009951
      f+3     :     0.016903
      f-3     :     0.028770
  6 O s       :     3.328080  s :     3.328080
      pz      :     1.678758  p :     4.517823
      px      :     1.426446
      py      :     1.412619
      dz2     :     0.008485  d :     0.072379
      dxz     :     0.016099
      dyz     :     0.003446
      dx2y2   :     0.026258
      dxy     :     0.018090
      f0      :     0.000526  f :     0.005033
      f+1     :     0.000758
      f-1     :     0.000305
      f+2     :     0.000801
      f-2     :     0.000193
      f+3     :     0.000786
      f-3     :     0.001663
  7 O s       :     3.339201  s :     3.339201
      pz      :     1.667783  p :     4.483398
      px      :     1.293819
      py      :     1.521796
      dz2     :     0.007117  d :     0.071900
      dxz     :     0.008548
      dyz     :     0.010718
      dx2y2   :     0.025035
      dxy     :     0.020482
      f0      :     0.000575  f :     0.005034
      f+1     :     0.000412
      f-1     :     0.000398
      f+2     :     0.000266
      f-2     :     0.000758
      f+3     :     0.000816
      f-3     :     0.001810
  8 C s       :     2.780395  s :     2.780395
      pz      :     1.017605  p :     3.041495
      px      :     0.999491
      py      :     1.024399
      dz2     :     0.054551  d :     0.383673
      dxz     :     0.093917
      dyz     :     0.089674
      dx2y2   :     0.089620
      dxy     :     0.055911
      f0      :     0.006088  f :     0.037277
      f+1     :     0.006959
      f-1     :     0.002691
      f+2     :     0.005803
      f-2     :     0.004799
      f+3     :     0.004024
      f-3     :     0.006912
  9 C s       :     2.799208  s :     2.799208
      pz      :     0.995064  p :     3.011487
      px      :     1.029950
      py      :     0.986473
      dz2     :     0.111393  d :     0.481053
      dxz     :     0.099873
      dyz     :     0.120747
      dx2y2   :     0.106673
      dxy     :     0.042368
      f0      :     0.009815  f :     0.052495
      f+1     :     0.004633
      f-1     :     0.010107
      f+2     :     0.007279
      f-2     :     0.010305
      f+3     :     0.006146
      f-3     :     0.004211
 10 N s       :     3.101268  s :     3.101268
      pz      :     1.402985  p :     3.908706
      px      :     1.352096
      py      :     1.153625
      dz2     :     0.024396  d :     0.139373
      dxz     :     0.020162
      dyz     :     0.037217
      dx2y2   :     0.045501
      dxy     :     0.012098
      f0      :     0.002166  f :     0.010218
      f+1     :     0.000469
      f-1     :     0.001704
      f+2     :     0.001970
      f-2     :     0.001376
      f+3     :     0.001418
      f-3     :     0.001115
 11 H s       :     0.788810  s :     0.788810
      pz      :     0.015687  p :     0.060060
      px      :     0.014014
      py      :     0.030359
 12 H s       :     0.797468  s :     0.797468
      pz      :     0.016085  p :     0.059966
      px      :     0.014191
      py      :     0.029690
 13 H s       :     0.794609  s :     0.794609
      pz      :     0.014513  p :     0.059384
      px      :     0.018490
      py      :     0.026381
 14 H s       :     0.655360  s :     0.655360
      pz      :     0.041583  p :     0.148348
      px      :     0.028283
      py      :     0.078483
 15 H s       :     0.653237  s :     0.653237
      pz      :     0.043758  p :     0.149607
      px      :     0.065961
      py      :     0.039888
 16 H s       :     0.794764  s :     0.794764
      pz      :     0.022636  p :     0.059310
      px      :     0.013359
      py      :     0.023315
 17 H s       :     0.800880  s :     0.800880
      pz      :     0.016857  p :     0.058346
      px      :     0.012535
      py      :     0.028954
 18 H s       :     0.812173  s :     0.812173
      pz      :     0.014089  p :     0.058319
      px      :     0.032083
      py      :     0.012146
 19 H s       :     0.811040  s :     0.811040
      pz      :     0.016039  p :     0.058508
      px      :     0.013509
      py      :     0.028961
 20 H s       :     0.745993  s :     0.745993
      pz      :     0.035179  p :     0.108683
      px      :     0.027274
      py      :     0.046229
 21 H s       :     0.740195  s :     0.740195
      pz      :     0.032390  p :     0.108928
      px      :     0.058254
      py      :     0.018284


                      *****************************
                      * MAYER POPULATION ANALYSIS *
                      *****************************

  NA   - Mulliken gross atomic population
  ZA   - Total nuclear charge
  QA   - Mulliken gross atomic charge
  VA   - Mayer's total valence
  BVA  - Mayer's bonded valence
  FA   - Mayer's free valence

[...]
     52       0.003169   0.513494   0.306852   0.362748  -0.450339  -0.003433
     53      -0.001530   0.309308   0.190532   0.237232  -0.290081  -0.002042
     54       0.004609   0.324846  -0.535178   0.555981   0.454441   0.002610
     55       0.015896  -0.007299   0.019126  -0.005517  -0.003192  -0.000100
     56       0.025557  -0.105591   0.170707  -0.168109  -0.134523  -0.000823
     57       0.028544  -0.031018   0.113665   0.039670   0.076294  -0.000054
     58      -0.000700   0.143404  -0.613644  -0.278635  -0.486179  -0.001405
     59       0.006707   0.087511  -0.369910  -0.165648  -0.293573  -0.001048
     60      -0.060161   0.000036  -0.002498  -0.001482  -0.001596  -0.000075
     61      -0.026090   0.000979   0.015461   0.007334   0.010104  -0.000087
     62       0.026489  -0.001301   0.008178   0.005086   0.013410   0.000043
     63      -0.001183  -0.006479   0.013117  -0.014205  -0.010038  -0.000086
     64      -0.074805  -0.000323   0.000055   0.001379   0.001640   0.000061
     65      -0.008193   0.001839  -0.003653  -0.000284  -0.000476  -0.000020
                 60         61         62         63         64         65    
      0      -0.018413   0.028861   0.000115  -0.000006   0.000801   0.000197
      1       0.039748  -0.066235  -0.000487  -0.000085   0.000206  -0.000182
      2       0.008731  -0.014049  -0.000017   0.000062  -0.000204  -0.000079
      3      -0.012072  -0.007901   0.000015  -0.000003  -0.000477  -0.000928
      4       0.022117   0.015075   0.000049   0.000019  -0.000224   0.001135
      5       0.004924   0.003271  -0.000004  -0.000003   0.000123   0.000357
      6       0.001931  -0.002888  -0.000088  -0.000100  -0.002656  -0.000736
      7       0.000491  -0.001132   0.000053   0.000026   0.000471   0.000346
      8      -0.000533   0.000795  -0.000022  -0.000008   0.000776   0.000238
      9       0.000692   0.003311   0.000242   0.000186  -0.000160  -0.000077
     10      -0.002474   0.000374   0.000103   0.000139  -0.000046  -0.000033
     11      -0.000402  -0.001000  -0.000056  -0.000039   0.000023   0.000029
     12       0.038524   0.022501  -0.000004   0.000021   0.000228   0.000067
     13       0.058001   0.035677   0.000024   0.000026   0.000146  -0.000123
     14      -0.007304  -0.004172   0.000042   0.000014  -0.000054  -0.000016
     15      -0.001328  -0.001148  -0.000012  -0.000001   0.001191   0.000151
     16      -0.001636  -0.000412  -0.000055  -0.000027   0.000436  -0.002435
     17       0.000262   0.000317   0.000000   0.000004  -0.000307  -0.000200
     18       0.000188   0.000218   0.000007   0.000018  -0.000073   0.021406
     19       0.000236   0.000180  -0.000017  -0.000016  -0.000484  -0.057526
     20      -0.000046  -0.000061  -0.000005   0.000004  -0.000011  -0.009978
     21      -0.000162   0.000239   0.000027   0.000014  -0.057294   0.000486
     22      -0.000034   0.000093  -0.000013  -0.000003   0.014631   0.000097
     23       0.000046  -0.000077  -0.000001   0.000002   0.017427  -0.000134
     24       0.000147   0.000397  -0.000073  -0.000030  -0.000012  -0.000016
     25       0.001328  -0.000388   0.000407  -0.000175   0.000003  -0.000007
     26      -0.000108  -0.000602  -0.000031  -0.000299   0.000039  -0.000046
     27      -0.000043  -0.000186  -0.002295  -0.002100  -0.000019   0.000013
     28       0.000591  -0.000223  -0.001516   0.001532   0.000035  -0.000001
     29       0.000297  -0.000010  -0.002187   0.001919   0.000003   0.000049
     30      -0.000134   0.000288  -0.035709  -0.055888   0.000020   0.000010
     31      -0.000244   0.000282  -0.042534   0.043248  -0.000016   0.000024
     32      -0.000089   0.000076  -0.002826   0.038269   0.000025  -0.000030
     33       0.205644  -0.335056  -0.001759  -0.000027   0.001006   0.000033
     34      -0.466204   0.764916   0.004606   0.000057  -0.001561   0.000838
     35      -0.099198   0.162392   0.000959  -0.000304  -0.000534   0.000078
     36       0.115945   0.077974  -0.000010   0.000099   0.000315   0.005553
     37      -0.247650  -0.166635  -0.000124  -0.000189   0.001528  -0.005391
     38      -0.049205  -0.033064  -0.000009  -0.000049  -0.000007  -0.001946
     39      -0.431454  -0.258553  -0.000121  -0.000168  -0.000280  -0.000337
     40      -0.672963  -0.405475  -0.000291  -0.000408  -0.000362   0.000125
     41       0.080375   0.048294  -0.000004   0.000066   0.000092   0.000103
     42       0.001801   0.001968  -0.000134  -0.000057  -0.004186  -0.331149
     43      -0.001313  -0.001888   0.000347   0.000148   0.004702   0.928329
     44      -0.000556  -0.000749   0.000033   0.000031   0.001559   0.156734
     45      -0.001424   0.001849  -0.000439   0.000047   0.926595  -0.005189
     46      -0.000905   0.001330   0.000131   0.000009  -0.240737   0.002886
     47       0.000338  -0.000436   0.000105  -0.000011  -0.282147   0.001661
     48      -0.004439  -0.003158  -0.000327  -0.000362  -0.000154  -0.000132
     49      -0.007816  -0.002245   0.003117  -0.000888  -0.000109   0.000091
     50       0.006325   0.003239  -0.002747   0.000596   0.000116   0.000024
     51       0.001641  -0.004962   0.001788  -0.001198   0.000061  -0.000107
     52      -0.006955   0.007985  -0.001875   0.001582   0.000044  -0.000051
     53      -0.004094   0.006074   0.001223  -0.000721  -0.000061  -0.000012
     54      -0.000982   0.000783   0.012239   0.015465  -0.000027  -0.000296
     55      -0.000152   0.000289  -0.002510  -0.001411  -0.000041   0.000049
     56       0.000141  -0.001185  -0.004070  -0.006425   0.000039  -0.000108
     57       0.000520  -0.000313  -0.004181   0.003922  -0.000031   0.000034
     58      -0.006111   0.002760   0.012560  -0.013222  -0.000352   0.000101
     59      -0.004423   0.001290   0.010123  -0.008495  -0.000340  -0.000030
     60       0.000011  -0.000077  -0.158941   0.122473  -0.000149   0.000084
     61       0.001791  -0.002714   0.601425  -0.625448   0.000360  -0.000169
     62       0.001224  -0.001475   0.308967  -0.326318   0.000067   0.000058
     63       0.001742  -0.003473   0.672553   0.660136   0.000252  -0.000282
     64       0.000429  -0.000862  -0.008897   0.021764  -0.000025  -0.000128
     65       0.000384   0.000856  -0.248095  -0.209902  -0.000325   0.000380


-----------
IR SPECTRUM
-----------

 Mode   freq       eps      Int      T**2         TX        TY        TZ
       cm**-1   L/(mol*cm) km/mol    a.u.
----------------------------------------------------------------------------
  6:     51.25   0.000140    0.71  0.000854  ( 0.007853 -0.014556  0.024091)
  7:     77.32   0.000050    0.26  0.000204  ( 0.008809  0.001739  0.011096)
  8:    134.10   0.000147    0.74  0.000342  (-0.017866  0.004016 -0.002589)
  9:    179.71   0.002131   10.77  0.003700  ( 0.035221 -0.006414  0.049178)
 10:    214.47   0.020461  103.40  0.029773  (-0.031543  0.013024 -0.169139)
 11:    244.77   0.002703   13.66  0.003446  (-0.025528 -0.005739 -0.052553)
 12:    287.75   0.002532   12.79  0.002746  ( 0.019943 -0.047952 -0.006974)
 13:    300.02   0.000014    0.07  0.000015  ( 0.000281 -0.003535 -0.001484)
 14:    324.17   0.006130   30.98  0.005901  (-0.044256  0.030483  0.054891)
 15:    353.68   0.001799    9.09  0.001587  (-0.033196  0.020566 -0.007879)
 16:    417.36   0.000595    3.01  0.000445  (-0.011675  0.012883 -0.011953)
 17:    431.03   0.005886   29.75  0.004261  ( 0.015959 -0.008798  0.062685)
 18:    445.92   0.005638   28.49  0.003946  (-0.020211 -0.003370 -0.059378)
 19:    459.76   0.001232    6.23  0.000836  (-0.010039 -0.021134  0.016998)
 20:    514.82   0.001689    8.53  0.001024  ( 0.030401  0.008106  0.005804)
 21:    576.26   0.000700    3.54  0.000379  (-0.018877 -0.000387  0.004761)
 22:    626.53   0.001020    5.15  0.000508  (-0.000046  0.000077  0.022538)
 23:    697.03   0.000265    1.34  0.000119  ( 0.009422 -0.003264 -0.004375)
 24:    704.77   0.001942    9.81  0.000860  ( 0.025564 -0.009756  0.010548)
 25:    758.86   0.005045   25.49  0.002075  (-0.005240  0.003565 -0.045104)
 26:    773.19   0.007291   36.84  0.002942  ( 0.053262  0.007369  0.007165)
 27:    818.02   0.005686   28.73  0.002169  ( 0.021790 -0.014515  0.038517)
 28:    826.48   0.025308  127.90  0.009556  (-0.046893  0.034906 -0.078348)
 29:    848.36   0.000054    0.27  0.000020  (-0.001454  0.003178 -0.002792)
 30:    857.77   0.001413    7.14  0.000514  (-0.009547 -0.002222 -0.020449)
 31:    886.53   0.013701   69.24  0.004823  ( 0.033868 -0.039797  0.045737)
 32:    939.81   0.004882   24.67  0.001621  ( 0.017637 -0.033671  0.013272)
 33:    987.26   0.008937   45.16  0.002825  (-0.045160 -0.008648 -0.026658)
 34:   1063.64   0.003855   19.48  0.001131  (-0.029265 -0.005658  0.015578)
 35:   1092.41   0.016758   84.69  0.004787  (-0.063258  0.019024  0.020585)
 36:   1117.58   0.000631    3.19  0.000176  (-0.012903  0.002952  0.000920)
 37:   1138.18   0.006840   34.57  0.001876  (-0.041202  0.002007  0.013187)
 38:   1150.97   0.014100   71.26  0.003823  ( 0.057350  0.021949 -0.007221)
 39:   1180.72   0.006927   35.01  0.001831  (-0.014462 -0.040225  0.001916)
 40:   1196.35   0.000922    4.66  0.000240  (-0.013275  0.005757 -0.005568)
 41:   1245.62   0.008574   43.33  0.002148  ( 0.012882 -0.044495 -0.001474)
 42:   1282.35   0.031451  158.94  0.007654  ( 0.073356  0.045675 -0.013647)
 43:   1297.96   0.007991   40.38  0.001921  (-0.035258 -0.017432  0.019343)
 44:   1312.08   0.015638   79.03  0.003719  ( 0.035264  0.049526 -0.004792)
 45:   1336.72   0.003248   16.41  0.000758  (-0.024914  0.007489 -0.009021)
 46:   1348.80   0.000588    2.97  0.000136  ( 0.010581  0.004694 -0.001434)
 47:   1381.18   0.002214   11.19  0.000500  ( 0.007066 -0.021101 -0.002247)
 48:   1428.22   0.001412    7.14  0.000309  (-0.003241 -0.007122 -0.015727)
 49:   1433.99   0.000015    0.08  0.000003  ( 0.000687 -0.001665  0.000068)
 50:   1463.18   0.000831    4.20  0.000177  ( 0.012864  0.002898 -0.001808)
 51:   1505.67   0.030713  155.21  0.006366  (-0.072783 -0.028745  0.015554)
 52:   1601.63   0.009101   45.99  0.001773  ( 0.018478  0.037833 -0.000601)
 53:   1613.35   0.002464   12.45  0.000477  ( 0.014668  0.016164 -0.000330)
 54:   1618.70   0.000894    4.52  0.000172  (-0.012159  0.001912  0.004565)
 55:   2953.50   0.004439   22.43  0.000469  ( 0.004185 -0.005583 -0.020503)
 56:   2959.60   0.008736   44.15  0.000921  ( 0.026458  0.013601 -0.006012)
 57:   2994.60   0.006534   33.02  0.000681  (-0.020374 -0.011816  0.011233)
 58:   3007.07   0.008048   40.67  0.000835  (-0.015433  0.022796  0.008793)
 59:   3083.01   0.003174   16.04  0.000321  ( 0.015630 -0.007577 -0.004429)
 60:   3108.39   0.002610   13.19  0.000262  ( 0.000319  0.016176  0.000500)
 61:   3109.89   0.000079    0.40  0.000008  ( 0.002617 -0.000415 -0.000933)
 62:   3385.02   0.000117    0.59  0.000011  (-0.001397 -0.002739 -0.001135)
 63:   3461.61   0.000169    0.85  0.000015  ( 0.003821 -0.000617  0.000470)
 64:   3641.55   0.017657   89.23  0.001513  ( 0.037377  0.004392 -0.009839)
 65:   3710.98   0.013009   65.74  0.001094  (-0.025233  0.020063  0.007398)

* The epsilon (eps) is given for a Dirac delta lineshape.
** The dipole moment derivative (T) already includes vibrational overlap.

The first frequency considered to be a vibration is 6
The total number of vibrations considered is 60


--------------------------
THERMOCHEMISTRY AT 298.15K
--------------------------

Temperature         ... 298.15 K
Pressure            ... 1.00 atm
Total Mass          ... 153.18 AMU

Throughout the following assumptions are being made:
  (1) The electronic state is orbitally nondegenerate
  (2) There are no thermally accessible electronically excited states
  (3) Hindered rotations indicated by low frequency modes are not
      treated as such but are treated as vibrations and this may
      cause some error
  (4) All equations used are the standard statistical mechanics
      equations for an ideal gas
  (5) All vibrations are strictly harmonic

freq.      51.25  E(vib)   ...       0.52 
freq.      77.32  E(vib)   ...       0.49 
freq.     134.10  E(vib)   ...       0.42 
freq.     179.71  E(vib)   ...       0.37 
freq.     214.47  E(vib)   ...       0.34 
freq.     244.77  E(vib)   ...       0.31 
freq.     287.75  E(vib)   ...       0.27 
freq.     300.02  E(vib)   ...       0.26 
freq.     324.17  E(vib)   ...       0.25 
freq.     353.68  E(vib)   ...       0.22 
freq.     417.36  E(vib)   ...       0.18 
freq.     431.03  E(vib)   ...       0.18 
freq.     445.92  E(vib)   ...       0.17 
freq.     459.76  E(vib)   ...       0.16 
freq.     514.82  E(vib)   ...       0.13 
freq.     576.26  E(vib)   ...       0.11 
freq.     626.53  E(vib)   ...       0.09 
freq.     697.03  E(vib)   ...       0.07 
freq.     704.77  E(vib)   ...       0.07 
freq.     758.86  E(vib)   ...       0.06 
freq.     773.19  E(vib)   ...       0.05 
freq.     818.02  E(vib)   ...       0.05 
freq.     826.48  E(vib)   ...       0.04 
freq.     848.36  E(vib)   ...       0.04 
freq.     857.77  E(vib)   ...       0.04 
freq.     886.53  E(vib)   ...       0.04 
freq.     939.81  E(vib)   ...       0.03 
freq.     987.26  E(vib)   ...       0.02 
freq.    1063.64  E(vib)   ...       0.02 
freq.    1092.41  E(vib)   ...       0.02 
freq.    1117.58  E(vib)   ...       0.01 
freq.    1138.18  E(vib)   ...       0.01 
freq.    1150.97  E(vib)   ...       0.01 
freq.    1180.72  E(vib)   ...       0.01 
freq.    1196.35  E(vib)   ...       0.01 
freq.    1245.62  E(vib)   ...       0.01 
freq.    1282.35  E(vib)   ...       0.01 
freq.    1297.96  E(vib)   ...       0.01 
freq.    1312.08  E(vib)   ...       0.01 
freq.    1336.72  E(vib)   ...       0.01 
freq.    1348.80  E(vib)   ...       0.01 
freq.    1381.18  E(vib)   ...       0.01 
freq.    1428.22  E(vib)   ...       0.00 
freq.    1433.99  E(vib)   ...       0.00 
freq.    1463.18  E(vib)   ...       0.00 
freq.    1505.67  E(vib)   ...       0.00 
freq.    1601.63  E(vib)   ...       0.00 
freq.    1613.35  E(vib)   ...       0.00 
freq.    1618.70  E(vib)   ...       0.00 
freq.    2953.50  E(vib)   ...       0.00 
freq.    2959.60  E(vib)   ...       0.00 
freq.    2994.60  E(vib)   ...       0.00 
freq.    3007.07  E(vib)   ...       0.00 
freq.    3083.01  E(vib)   ...       0.00 
freq.    3108.39  E(vib)   ...       0.00 
freq.    3109.89  E(vib)   ...       0.00 
freq.    3385.02  E(vib)   ...       0.00 
freq.    3461.61  E(vib)   ...       0.00 
freq.    3641.55  E(vib)   ...       0.00 
freq.    3710.98  E(vib)   ...       0.00 

------------
INNER ENERGY
------------

The inner energy is: U= E(el) + E(ZPE) + E(vib) + E(rot) + E(trans)
    E(el)   - is the total energy from the electronic structure calculation
              = E(kin-el) + E(nuc-el) + E(el-el) + E(nuc-nuc)
    E(ZPE)  - the the zero temperature vibrational energy from the frequency calculation
    E(vib)  - the the finite temperature correction to E(ZPE) due to population
              of excited vibrational states
    E(rot)  - is the rotational thermal energy
    E(trans)- is the translational thermal energy

Summary of contributions to the inner energy U:
Electronic energy                ...   -516.26857369 Eh
Zero point energy                ...      0.17760939 Eh     111.45 kcal/mol
Thermal vibrational correction   ...      0.00822111 Eh       5.16 kcal/mol
Thermal rotational correction    ...      0.00141627 Eh       0.89 kcal/mol
Thermal translational correction ...      0.00141627 Eh       0.89 kcal/mol
-----------------------------------------------------------------------
Total thermal energy                   -516.07991064 Eh


Summary of corrections to the electronic energy:
(perhaps to be used in another calculation)
Total thermal correction                  0.01105366 Eh       6.94 kcal/mol
Non-thermal (ZPE) correction              0.17760939 Eh     111.45 kcal/mol
-----------------------------------------------------------------------
Total correction                          0.18866305 Eh     118.39 kcal/mol


--------
ENTHALPY
--------

The enthalpy is H = U + kB*T
                kB is Boltzmann's constant
Total free energy                 ...   -516.07991064 Eh 
Thermal Enthalpy correction       ...      0.00094421 Eh       0.59 kcal/mol
-----------------------------------------------------------------------
Total Enthalpy                    ...   -516.07896643 Eh


Note: Only C1 symmetry has been detected, increase convergence thresholds 
      if your molecule has a higher symmetry. Symmetry factor of 1.0 is   
      used for the rotational entropy correction. 
 

Note: Rotational entropy computed according to Herzberg 
Infrared and Raman Spectra, Chapter V,1, Van Nostrand Reinhold, 1945 
Point Group:  C1, Symmetry Number:   1  
Rotational constants in cm-1:     0.069959     0.022206     0.018926 

Vibrational entropy computed according to the QRRHO of S. Grimme
Chem.Eur.J. 2012 18 9955


-------
ENTROPY
-------

The entropy contributions are T*S = T*(S(el)+S(vib)+S(rot)+S(trans))
     S(el)   - electronic entropy
     S(vib)  - vibrational entropy
     S(rot)  - rotational entropy
     S(trans)- translational entropy
The entropies will be listed as multiplied by the temperature to get
units of energy

Electronic entropy                ...      0.00000000 Eh      0.00 kcal/mol
Vibrational entropy               ...      0.01372410 Eh      8.61 kcal/mol
Rotational entropy                ...      0.01443682 Eh      9.06 kcal/mol
Translational entropy             ...      0.01947521 Eh     12.22 kcal/mol
-----------------------------------------------------------------------
Final entropy term                ...      0.04763613 Eh     29.89 kcal/mol

In case the symmetry of your molecule has not been determined correctly
or in case you have a reason to use a different symmetry number we print 
out the resulting rotational entropy values for sn=1,12 :
 --------------------------------------------------------
|  sn= 1 | S(rot)=       0.01443682 Eh      9.06 kcal/mol|
|  sn= 2 | S(rot)=       0.01378236 Eh      8.65 kcal/mol|
|  sn= 3 | S(rot)=       0.01339953 Eh      8.41 kcal/mol|
|  sn= 4 | S(rot)=       0.01312790 Eh      8.24 kcal/mol|
|  sn= 5 | S(rot)=       0.01291722 Eh      8.11 kcal/mol|
|  sn= 6 | S(rot)=       0.01274507 Eh      8.00 kcal/mol|
|  sn= 7 | S(rot)=       0.01259953 Eh      7.91 kcal/mol|
|  sn= 8 | S(rot)=       0.01247345 Eh      7.83 kcal/mol|
|  sn= 9 | S(rot)=       0.01236224 Eh      7.76 kcal/mol|
|  sn=10 | S(rot)=       0.01226276 Eh      7.69 kcal/mol|
|  sn=11 | S(rot)=       0.01217277 Eh      7.64 kcal/mol|
|  sn=12 | S(rot)=       0.01209062 Eh      7.59 kcal/mol|
 --------------------------------------------------------


-------------------
GIBBS FREE ENERGY
-------------------

The Gibbs free energy is G = H - T*S

Total enthalpy                    ...   -516.07896643 Eh 
Total entropy correction          ...     -0.04763613 Eh    -29.89 kcal/mol
-----------------------------------------------------------------------
Final Gibbs free energy         ...   -516.12660256 Eh

For completeness - the Gibbs free energy minus the electronic energy
G-E(el)                           ...      0.14197113 Eh     89.09 kcal/mol



Timings for individual modules:

Sum of individual times         ...     1902.769 sec (=  31.713 min)
GTO integral calculation        ...        6.868 sec (=   0.114 min)   0.4 %
SCF iterations                  ...       97.878 sec (=   1.631 min)   5.1 %
SCF Gradient evaluation         ...       43.253 sec (=   0.721 min)   2.3 %
Geometry relaxation             ...        0.217 sec (=   0.004 min)   0.0 %
Numerical frequency calculation ...     1754.553 sec (=  29.243 min)  92.2 %
                             ****ORCA TERMINATED NORMALLY****
TOTAL RUN TIME: 0 days 0 hours 31 minutes 36 seconds 843 msec
