
                                 *****************
                                 * O   R   C   A *
                                 *****************

                                            #,                                       
                                            ###                                      
                                            ####                                     
                                            #####                                    
                                            ######                                   
                                           ########,                                 
                                     ,,################,,,,,                         
                               ,,#################################,,                 
                          ,,##########################################,,             
                       ,#########################################, ''#####,          
                    ,#############################################,,   '####,        
                  ,##################################################,,,,####,       
                ,###########''''           ''''###############################       
              ,#####''   ,,,,##########,,,,          '''####'''          '####       
            ,##' ,,,,###########################,,,                        '##       
           ' ,,###''''                  '''############,,,                           
         ,,##''                                '''############,,,,        ,,,,,,###''
      ,#''                                            '''#######################'''  
     '                                                          ''''####''''         
             ,#######,   #######,   ,#######,      ##                                
            ,#'     '#,  ##    ##  ,#'     '#,    #''#        ######   ,####,        
            ##       ##  ##   ,#'  ##            #'  '#       #        #'  '#        
            ##       ##  #######   ##           ,######,      #####,   #    #        
            '#,     ,#'  ##    ##  '#,     ,#' ,#      #,         ##   #,  ,#        
             '#######'   ##     ##  '#######'  #'      '#     #####' # '####'        



                  #######################################################
                  #                        -***-                        #
                  #          Department of theory and spectroscopy      #
                  #    Directorship and core code : Frank Neese         #
                  #        Max Planck Institute fuer Kohlenforschung    #
                  #                Kaiser Wilhelm Platz 1               #
                  #                 D-45470 Muelheim/Ruhr               #
                  #                      Germany                        #
                  #                                                     #
                  #                  All rights reserved                #
                  #                        -***-                        #
                  #######################################################


                         Program Version 5.0.1 -  RELEASE  -


 With contributions from (in alphabetic order):
   Daniel Aravena         : Magnetic Suceptibility
   Michael Atanasov       : Ab Initio Ligand Field Theory (pilot matlab implementation)
   Alexander A. Auer      : GIAO ZORA, VPT2 properties, NMR spectrum
   Ute Becker             : Parallelization
   Giovanni Bistoni       : ED, misc. LED, open-shell LED, HFLD
   Martin Brehm           : Molecular dynamics
   Dmytro Bykov           : SCF Hessian
   Vijay G. Chilkuri      : MRCI spin determinant printing, contributions to CSF-ICE
   Dipayan Datta          : RHF DLPNO-CCSD density
   Achintya Kumar Dutta   : EOM-CC, STEOM-CC
   Dmitry Ganyushin       : Spin-Orbit,Spin-Spin,Magnetic field MRCI
   Miquel Garcia          : C-PCM and meta-GGA Hessian, CC/C-PCM, Gaussian charge scheme
   Yang Guo               : DLPNO-NEVPT2, F12-NEVPT2, CIM, IAO-localization
   Andreas Hansen         : Spin unrestricted coupled pair/coupled cluster methods
   Benjamin Helmich-Paris : MC-RPA, TRAH-SCF, COSX integrals
   Lee Huntington         : MR-EOM, pCC
   Robert Izsak           : Overlap fitted RIJCOSX, COSX-SCS-MP3, EOM
   Marcus Kettner         : VPT2
   Christian Kollmar      : KDIIS, OOCD, Brueckner-CCSD(T), CCSD density, CASPT2, CASPT2-K
   Simone Kossmann        : Meta GGA functionals, TD-DFT gradient, OOMP2, MP2 Hessian
   Martin Krupicka        : Initial AUTO-CI
   Lucas Lang             : DCDCAS
   Marvin Lechner         : AUTO-CI (C++ implementation), FIC-MRCC
   Dagmar Lenk            : GEPOL surface, SMD
   Dimitrios Liakos       : Extrapolation schemes; Compound Job, initial MDCI parallelization
   Dimitrios Manganas     : Further ROCIS development; embedding schemes
   Dimitrios Pantazis     : SARC Basis sets
   Anastasios Papadopoulos: AUTO-CI, single reference methods and gradients
   Taras Petrenko         : DFT Hessian,TD-DFT gradient, ASA, ECA, R-Raman, ABS, FL, XAS/XES, NRVS
   Peter Pinski           : DLPNO-MP2, DLPNO-MP2 Gradient
   Christoph Reimann      : Effective Core Potentials
   Marius Retegan         : Local ZFS, SOC
   Christoph Riplinger    : Optimizer, TS searches, QM/MM, DLPNO-CCSD(T), (RO)-DLPNO pert. Triples
   Tobias Risthaus        : Range-separated hybrids, TD-DFT gradient, RPA, STAB
   Michael Roemelt        : Original ROCIS implementation
   Masaaki Saitow         : Open-shell DLPNO-CCSD energy and density
   Barbara Sandhoefer     : DKH picture change effects
   Avijit Sen             : IP-ROCIS
   Kantharuban Sivalingam : CASSCF convergence, NEVPT2, FIC-MRCI
   Bernardo de Souza      : ESD, SOC TD-DFT
   Georgi Stoychev        : AutoAux, RI-MP2 NMR, DLPNO-MP2 response
   Willem Van den Heuvel  : Paramagnetic NMR
   Boris Wezisla          : Elementary symmetry handling
   Frank Wennmohs         : Technical directorship


 We gratefully acknowledge several colleagues who have allowed us to
 interface, adapt or use parts of their codes:
   Stefan Grimme, W. Hujo, H. Kruse, P. Pracht,  : VdW corrections, initial TS optimization,
                  C. Bannwarth, S. Ehlert          DFT functionals, gCP, sTDA/sTD-DF
   Ed Valeev, F. Pavosevic, A. Kumar             : LibInt (2-el integral package), F12 methods
   Garnet Chan, S. Sharma, J. Yang, R. Olivares  : DMRG
   Ulf Ekstrom                                   : XCFun DFT Library
   Mihaly Kallay                                 : mrcc  (arbitrary order and MRCC methods)
   Jiri Pittner, Ondrej Demel                    : Mk-CCSD
   Frank Weinhold                                : gennbo (NPA and NBO analysis)
   Christopher J. Cramer and Donald G. Truhlar   : smd solvation model
   Lars Goerigk                                  : TD-DFT with DH, B97 family of functionals
   V. Asgeirsson, H. Jonsson                     : NEB implementation
   FAccTs GmbH                                   : IRC, NEB, NEB-TS, DLPNO-Multilevel, CI-OPT
                                                   MM, QMMM, 2- and 3-layer-ONIOM, Crystal-QMMM,
                                                   LR-CPCM, SF, NACMEs, symmetry and pop. for TD-DFT,
                                                   nearIR, NL-DFT gradient (VV10), updates on ESD,
                                                   ML-optimized integration grids
   S Lehtola, MJT Oliveira, MAL Marques          : LibXC Library
   Liviu Ungur et al                             : ANISO software


 Your calculation uses the libint2 library for the computation of 2-el integrals
 For citations please refer to: http://libint.valeyev.net

 Your ORCA version has been built with support for libXC version: 5.1.0
 For citations please refer to: https://tddft.org/programs/libxc/

 This ORCA versions uses:
   CBLAS   interface :  Fast vector & matrix operations
   LAPACKE interface :  Fast linear algebra routines
   SCALAPACK package :  Parallel linear algebra routines
   Shared memory     :  Shared parallel matrices
   BLAS/LAPACK       :  OpenBLAS 0.3.15  USE64BITINT DYNAMIC_ARCH NO_AFFINITY Haswell SINGLE_THREADED
        Core in use  :  Haswell
   Copyright (c) 2011-2014, The OpenBLAS Project




***************************************
The coordinates will be read from file: cu+cu.xyz
***************************************


Your calculation utilizes the atom-pairwise dispersion correction
with the Becke-Johnson damping scheme (D3BJ)
Cite in your paper:
S.Grimme, S.Ehrlich, L.Goerigk, J Comput Chem, (2011), 32, 1456–1465 
S.Grimme, J.Antony, S.Ehrlich and H.Krieg, J.Chem.Phys., 132, (2010), 154104 
   

================================================================================

----- Orbital basis set information -----
Your calculation utilizes the basis: def2-TZVP
   F. Weigend and R. Ahlrichs, Phys. Chem. Chem. Phys. 7, 3297 (2005).

----- AuxJ basis set information -----
Your calculation utilizes the auxiliary basis: def2/J
   F. Weigend, Phys. Chem. Chem. Phys. 8, 1057 (2006).

================================================================================
                                        WARNINGS
                       Please study these warnings very carefully!
================================================================================


WARNING: Geometry Optimization
  ===> : Switching off AutoStart
         For restart on a previous wavefunction, please use MOREAD

INFO   : the flag for use of the SHARK integral package has been found!

================================================================================
                                       INPUT FILE
================================================================================
NAME = ex.inp
|  1> ! PBE D3 def2-TZVP opt 
|  2> 
|  3> %base "cu2"
|  4> %pal nprocs=8 end
|  5> %geom maxiter=75 end
|  6> *xyzfile 2 1 cu+cu.xyz
|  7> 
|  8>                          ****END OF INPUT****
================================================================================

                       *****************************
                       * Geometry Optimization Run *
                       *****************************

Geometry optimization settings:
Update method            Update   .... BFGS
Choice of coordinates    CoordSys .... Z-matrix Internals
Initial Hessian          InHess   .... Almoef's Model

Convergence Tolerances:
Energy Change            TolE     ....  5.0000e-06 Eh
Max. Gradient            TolMAXG  ....  3.0000e-04 Eh/bohr
RMS Gradient             TolRMSG  ....  1.0000e-04 Eh/bohr
Max. Displacement        TolMAXD  ....  4.0000e-03 bohr
RMS Displacement         TolRMSD  ....  2.0000e-03 bohr
Strict Convergence                ....  False
------------------------------------------------------------------------------
                        ORCA OPTIMIZATION COORDINATE SETUP
------------------------------------------------------------------------------

The optimization will be done in new redundant internal coordinates
Making redundant internal coordinates   ...  (new redundants) done
Evaluating the initial hessian          ...  (Almloef) done
Evaluating the coordinates              ...  done
Calculating the B-matrix                .... done
Calculating the G-matrix                .... done
Diagonalizing the G-matrix              .... done
The first mode is                       ....    5
The number of degrees of freedom        ....    6

    -----------------------------------------------------------------
                    Redundant Internal Coordinates


    -----------------------------------------------------------------
         Definition                    Initial Value    Approx d2E/dq
    -----------------------------------------------------------------
      1. B(H   2,Cu  0)                  1.9826         0.137232   
      2. B(H   2,Cu  1)                  2.2299         0.055322   
      3. B(H   3,Cu  0)                  1.9504         0.154477   
      4. B(H   3,H   2)                  0.6400         0.360093   
      5. A(H   2,Cu  0,H   3)           18.7072         0.285513   
      6. A(Cu  0,H   2,H   3)           77.7988         0.246129   
      7. A(Cu  1,H   2,H   3)          142.8334         0.216924   
      8. A(Cu  0,H   2,Cu  1)          135.2877         0.244759   
      9. A(Cu  0,H   3,H   2)           83.4940         0.250395   
     10. D(Cu  1,H   2,Cu  0,H   3)   -160.1235         0.001887   
     11. D(Cu  0,H   3,H   2,Cu  1)    156.6753         7.655397   
    -----------------------------------------------------------------

Number of atoms                         .... 4
Number of degrees of freedom            .... 11

         *************************************************************
         *                GEOMETRY OPTIMIZATION CYCLE   1            *
         *************************************************************
---------------------------------
CARTESIAN COORDINATES (ANGSTROEM)
---------------------------------
  Cu    -1.611120    1.510810    0.788540
  Cu     1.395210   -0.968860    0.788540
  H     -0.149390    0.430800   -0.003700
  H     -0.524530    0.542770   -0.510000

----------------------------
CARTESIAN COORDINATES (A.U.)
----------------------------
  NO LB      ZA    FRAG     MASS         X           Y           Z
   0 Cu   29.0000    0    63.550   -3.044576    2.855017    1.490125
   1 Cu   29.0000    0    63.550    2.636565   -1.830880    1.490125
   2 H     1.0000    0     1.008   -0.282306    0.814094   -0.006992
   3 H     1.0000    0     1.008   -0.991218    1.025687   -0.963760

--------------------------------
INTERNAL COORDINATES (ANGSTROEM)
--------------------------------
 Cu     0   0   0     0.000000000000     0.00000000     0.00000000
 Cu     1   0   0     3.897022373274     0.00000000     0.00000000
 H      1   2   0     1.982604451372    23.73927667     0.00000000
 H      3   1   2     0.640005461305    77.79881348   160.12351101

---------------------------
INTERNAL COORDINATES (A.U.)
---------------------------
 Cu     0   0   0     0.000000000000     0.00000000     0.00000000
 Cu     1   0   0     7.364305023252     0.00000000     0.00000000
 H      1   2   0     3.746579444986    23.73927667     0.00000000
 H      3   1   2     1.209435046080    77.79881348   160.12351101

---------------------
BASIS SET INFORMATION
---------------------
There are 2 groups of distinct atoms

 Group   1 Type Cu  : 17s11p7d1f contracted to 6s4p4d1f pattern {842111/6311/4111/1}
 Group   2 Type H   : 5s1p contracted to 3s1p pattern {311/1}

Atom   0Cu   basis set group =>   1
Atom   1Cu   basis set group =>   1
Atom   2H    basis set group =>   2
Atom   3H    basis set group =>   2
---------------------------------
AUXILIARY/J BASIS SET INFORMATION
---------------------------------
There are 2 groups of distinct atoms

 Group   1 Type Cu  : 19s5p5d3f3g contracted to 8s5p4d3f3g pattern {121111111/11111/2111/111/111}
 Group   2 Type H   : 5s2p1d contracted to 3s1p1d pattern {311/2/1}

Atom   0Cu   basis set group =>   1
Atom   1Cu   basis set group =>   1
Atom   2H    basis set group =>   2
Atom   3H    basis set group =>   2


           ************************************************************
           *        Program running with 8 parallel MPI-processes     *
           *              working on a common directory               *
           ************************************************************
------------------------------------------------------------------------------
                           ORCA GTO INTEGRAL CALCULATION
                           -- RI-GTO INTEGRALS CHOSEN --
------------------------------------------------------------------------------
------------------------------------------------------------------------------
                   ___                                                        
                  /   \      - P O W E R E D   B Y -                         
                 /     \                                                     
                 |  |  |   _    _      __       _____    __    __             
                 |  |  |  | |  | |    /  \     |  _  \  |  |  /  |          
                  \  \/   | |  | |   /    \    | | | |  |  | /  /          
                 / \  \   | |__| |  /  /\  \   | |_| |  |  |/  /          
                |  |  |   |  __  | /  /__\  \  |    /   |      \           
                |  |  |   | |  | | |   __   |  |    \   |  |\   \          
                \     /   | |  | | |  |  |  |  | |\  \  |  | \   \       
                 \___/    |_|  |_| |__|  |__|  |_| \__\ |__|  \__/        
                                                                              
                      - O R C A' S   B I G   F R I E N D -                    
                                      &                                       
                       - I N T E G R A L  F E E D E R -                       
                                                                              
 v1 FN, 2020, v2 2021                                                         
------------------------------------------------------------------------------


Reading SHARK input file cu2.SHARKINP.tmp ... ok
----------------------
SHARK INTEGRAL PACKAGE
----------------------

Number of atoms                             ...      4
Number of basis functions                   ...    102
Number of shells                            ...     38
Maximum angular momentum                    ...      3
Integral batch strategy                     ... SHARK/LIBINT Hybrid
RI-J (if used) integral strategy            ... SPLIT-RIJ (Revised 2003 algorithm where possible)
Printlevel                                  ...      1
Contraction scheme used                     ... SEGMENTED contraction
Coulomb Range Separation                    ... NOT USED
Exchange Range Separation                   ... NOT USED
Finite Nucleus Model                        ... NOT USED
Auxiliary Coulomb fitting basis             ... AVAILABLE
   # of basis functions in Aux-J            ...    204
   # of shells in Aux-J                     ...     56
   Maximum angular momentum in Aux-J        ...      4
Auxiliary J/K fitting basis                 ... NOT available
Auxiliary Correlation fitting basis         ... NOT available
Auxiliary 'external' fitting basis          ... NOT available
Integral threshold                          ...     2.500000e-11
Primitive cut-off                           ...     2.500000e-12
Primitive pair pre-selection threshold      ...     2.500000e-12

Calculating pre-screening integrals         ... done (  0.1 sec) Dimension = 38
Organizing shell pair data                  ... done (  0.0 sec)
Shell pair information
Total number of shell pairs                 ...       741
Shell pairs after pre-screening             ...       651
Total number of primitive shell pairs       ...      3694
Primitive shell pairs kept                  ...      2518
          la=0 lb=0:    154 shell pairs
          la=1 lb=0:    157 shell pairs
          la=1 lb=1:     49 shell pairs
          la=2 lb=0:    130 shell pairs
          la=2 lb=1:     70 shell pairs
          la=2 lb=2:     33 shell pairs
          la=3 lb=0:     28 shell pairs
          la=3 lb=1:     16 shell pairs
          la=3 lb=2:     12 shell pairs
          la=3 lb=3:      2 shell pairs

Calculating one electron integrals          ... done (  0.0 sec)
Calculating RI/J V-Matrix + Cholesky decomp.... done (  0.0 sec)
Calculating Nuclear repulsion               ... done (  0.0 sec) ENN=    143.062981568798 Eh

SHARK setup successfully completed in   0.2 seconds

Maximum memory used throughout the entire GTOINT-calculation: 17.2 MB


           ************************************************************
           *        Program running with 8 parallel MPI-processes     *
           *              working on a common directory               *
           ************************************************************
-------------------------------------------------------------------------------
                                 ORCA SCF
-------------------------------------------------------------------------------

------------
SCF SETTINGS
------------
Hamiltonian:
 Density Functional     Method          .... DFT(GTOs)
 Exchange Functional    Exchange        .... PBE
   PBE kappa parameter   XKappa         ....  0.804000
   PBE mue parameter    XMuePBE         ....  0.219520
 Correlation Functional Correlation     .... PBE
   PBE beta parameter  CBetaPBE         ....  0.066725
 LDA part of GGA corr.  LDAOpt          .... PW91-LDA
 Gradients option       PostSCFGGA      .... off
   Density functional embedding theory  .... OFF
   NL short-range parameter             ....  6.400000
 RI-approximation to the Coulomb term is turned on
   Number of AuxJ basis functions       .... 204


General Settings:
 Integral files         IntName         .... cu2
 Hartree-Fock type      HFTyp           .... RHF
 Total Charge           Charge          ....    2
 Multiplicity           Mult            ....    1
 Number of Electrons    NEL             ....   58
 Basis Dimension        Dim             ....  102
 Nuclear Repulsion      ENuc            ....    143.0629815688 Eh

Convergence Acceleration:
 DIIS                   CNVDIIS         .... on
   Start iteration      DIISMaxIt       ....    12
   Startup error        DIISStart       ....  0.200000
   # of expansion vecs  DIISMaxEq       ....     5
   Bias factor          DIISBfac        ....   1.050
   Max. coefficient     DIISMaxC        ....  10.000
 Trust-Rad. Augm. Hess. CNVTRAH         .... auto
   Auto Start mean grad. ratio tolernc. ....  1.125000
   Auto Start start iteration           ....    20
   Auto Start num. interpolation iter.  ....    10
   Max. Number of Micro iterations      ....    16
   Max. Number of Macro iterations      .... Maxiter - #DIIS iter
   Number of Davidson start vectors     ....     2
   Converg. threshold I  (grad. norm)   ....   1.000e-05
   Converg. threshold II (energy diff.) ....   1.000e-08
   Grad. Scal. Fac. for Micro threshold ....   0.100
   Minimum threshold for Micro iter.    ....   0.010
   NR start threshold (gradient norm)   ....   0.001
   Initial trust radius                 ....   0.400
   Minimum AH scaling param. (alpha)    ....   1.000
   Maximum AH scaling param. (alpha)    .... 1000.000
   Orbital update algorithm             .... Taylor
   White noise on init. David. guess    .... on
   Maximum white noise                  ....   0.010
   Quad. conv. algorithm                .... NR
 SOSCF                  CNVSOSCF        .... off
 Level Shifting         CNVShift        .... on
   Level shift para.    LevelShift      ....    0.2500
   Turn off err/grad.   ShiftErr        ....    0.0010
 Zerner damping         CNVZerner       .... off
 Static damping         CNVDamp         .... on
   Fraction old density DampFac         ....    0.7000
   Max. Damping (<1)    DampMax         ....    0.9800
   Min. Damping (>=0)   DampMin         ....    0.0000
   Turn off err/grad.   DampErr         ....    0.1000
 Fernandez-Rico         CNVRico         .... off

SCF Procedure:
 Maximum # iterations   MaxIter         ....   125
 SCF integral mode      SCFMode         .... Direct
   Integral package                     .... SHARK and LIBINT hybrid scheme
 Reset frequency        DirectResetFreq ....    20
 Integral Threshold     Thresh          ....  2.500e-11 Eh
 Primitive CutOff       TCut            ....  2.500e-12 Eh

Convergence Tolerance:
 Convergence Check Mode ConvCheckMode   .... Total+1el-Energy
 Convergence forced     ConvForced      .... 0
 Energy Change          TolE            ....  1.000e-08 Eh
 1-El. energy change                    ....  1.000e-05 Eh
 DIIS Error             TolErr          ....  5.000e-07


Diagonalization of the overlap matrix:
Smallest eigenvalue                        ... 5.974e-03
Time for diagonalization                   ...    0.002 sec
Threshold for overlap eigenvalues          ... 1.000e-08
Number of eigenvalues below threshold      ... 0
Time for construction of square roots      ...    0.001 sec
Total time needed                          ...    0.003 sec

Time for model grid setup =    0.038 sec

------------------------------
INITIAL GUESS: MODEL POTENTIAL
------------------------------
Loading Hartree-Fock densities                     ... done
Calculating cut-offs                               ... done
Initializing the effective Hamiltonian             ... done
Setting up the integral package (SHARK)            ... done
Starting the Coulomb interaction                   ... done (   0.0 sec)
Reading the grid                                   ... done
Mapping shells                                     ... done
Starting the XC term evaluation                    ... done (   0.0 sec)
  promolecular density results
     # of electrons  =     59.999249076
     EX              =   -131.492504785
     EC              =     -2.736080791
     EX+EC           =   -134.228585576
Transforming the Hamiltonian                       ... done (   0.0 sec)
Diagonalizing the Hamiltonian                      ... done (   0.0 sec)
Back transforming the eigenvectors                 ... done (   0.0 sec)
Now organizing SCF variables                       ... done
                      ------------------
                      INITIAL GUESS DONE (   0.1 sec)
                      ------------------
-------------------
DFT GRID GENERATION
-------------------

General Integration Accuracy     IntAcc      ... 4.388
Radial Grid Type                 RadialGrid  ... OptM3 with GC (2021)
Angular Grid (max. ang.)         AngularGrid ... 4 (Lebedev-302)
Angular grid pruning method      GridPruning ... 4 (adaptive)
Weight generation scheme         WeightScheme... Becke
Basis function cutoff            BFCut       ... 1.0000e-11
Integration weight cutoff        WCut        ... 1.0000e-14
Angular grids for H and He will be reduced by one unit
Partially contracted basis set               ... off
Rotationally invariant grid construction     ... off

Total number of grid points                  ...    29206
Total number of batches                      ...      458
Average number of points per batch           ...       63
Average number of grid points per atom       ...     7302
Time for grid setup =    0.179 sec

--------------
SCF ITERATIONS
--------------
ITER       Energy         Delta-E        Max-DP      RMS-DP      [F,P]     Damp
               ***  Starting incremental Fock matrix formation  ***
  0  -3280.8871769686   0.000000000000 0.03495084  0.00154761  0.1826231 0.7000
  1  -3280.9071768853  -0.019999916686 0.00892373  0.00041899  0.0322094 0.7000
                               ***Turning on DIIS***
  2  -3280.9144724555  -0.007295570172 0.01748064  0.00091822  0.0220942 0.0000
  3  -3280.9332333991  -0.018760943639 0.00793018  0.00037974  0.0411149 0.0000
  4  -3280.9355822374  -0.002348838323 0.00229354  0.00008619  0.0069000 0.0000
  5  -3280.9356360430  -0.000053805577 0.00082297  0.00003993  0.0031025 0.0000
  6  -3280.9356455165  -0.000009473503 0.00051763  0.00002391  0.0021278 0.0000
  7  -3280.9356510287  -0.000005512236 0.00121382  0.00003697  0.0002359 0.0000
  8  -3280.9356516880  -0.000000659248 0.00030732  0.00000802  0.0004024 0.0000
  9  -3280.9356518659  -0.000000177874 0.00006597  0.00000176  0.0000805 0.0000
 10  -3280.9356518780  -0.000000012115 0.00001877  0.00000051  0.0000179 0.0000
 11  -3280.9356518765   0.000000001487 0.00000240  0.00000008  0.0000050 0.0000
 12  -3280.9356518655   0.000000010999 0.00000039  0.00000002  0.0000013 0.0000
                            ***DIIS convergence achieved***

               *****************************************************
               *                     SUCCESS                       *
               *           SCF CONVERGED AFTER  13 CYCLES          *
               *****************************************************


----------------
TOTAL SCF ENERGY
----------------

Total Energy       :        -3280.93565186 Eh          -89278.79793 eV

Components:
Nuclear Repulsion  :          143.06298157 Eh            3892.94164 eV
Electronic Energy  :        -3423.99863343 Eh          -93171.73958 eV
One Electron Energy:        -4834.00110559 Eh         -131539.85744 eV
Two Electron Energy:         1410.00247216 Eh           38368.11786 eV

Virial components:
Potential Energy   :        -6557.13513878 Eh         -178428.71827 eV
Kinetic Energy     :         3276.19948692 Eh           89149.92033 eV
Virial Ratio       :            2.00144563


DFT components:
N(Alpha)           :       28.999998053470 electrons
N(Beta)            :       28.999998053470 electrons
N(Total)           :       57.999996106940 electrons
E(X)               :     -131.503829980642 Eh       
E(C)               :       -2.705182921722 Eh       
E(XC)              :     -134.209012902365 Eh       
DFET-embed. en.    :        0.000000000000 Eh       

---------------
SCF CONVERGENCE
---------------

  Last Energy change         ...    4.9035e-09  Tolerance :   1.0000e-08
  Last MAX-Density change    ...    1.4219e-07  Tolerance :   1.0000e-07
  Last RMS-Density change    ...    5.5666e-09  Tolerance :   5.0000e-09
  Last DIIS Error            ...    5.4212e-07  Tolerance :   5.0000e-07

             **** THE GBW FILE WAS UPDATED (cu2.gbw) ****
             **** DENSITY cu2.scfp WAS UPDATED ****
             **** ENERGY FILE WAS UPDATED (cu2.en.tmp) ****
             **** THE GBW FILE WAS UPDATED (cu2.gbw) ****
             **** DENSITY cu2.scfp WAS UPDATED ****
----------------
ORBITAL ENERGIES
----------------

  NO   OCC          E(Eh)            E(eV) 
   0   2.0000    -321.942176     -8760.4920 
   1   2.0000    -321.938234     -8760.3847 
   2   2.0000     -38.696640     -1052.9891 
   3   2.0000     -38.690416     -1052.8198 
   4   2.0000     -33.988461      -924.8730 
   5   2.0000     -33.988267      -924.8678 
   6   2.0000     -33.988214      -924.8663 
   7   2.0000     -33.982306      -924.7056 
   8   2.0000     -33.982222      -924.7033 
   9   2.0000     -33.982120      -924.7005 
  10   2.0000      -4.534851      -123.3996 
  11   2.0000      -4.529506      -123.2541 
  12   2.0000      -3.073062       -83.6223 
  13   2.0000      -3.071483       -83.5793 
  14   2.0000      -3.068924       -83.5097 
  15   2.0000      -3.067535       -83.4719 
  16   2.0000      -3.065499       -83.4165 
  17   2.0000      -3.065072       -83.4049 
  18   2.0000      -0.907118       -24.6839 
  19   2.0000      -0.650912       -17.7122 
  20   2.0000      -0.646198       -17.5840 
  21   2.0000      -0.645156       -17.5556 
  22   2.0000      -0.643348       -17.5064 
  23   2.0000      -0.643292       -17.5049 
  24   2.0000      -0.641981       -17.4692 
  25   2.0000      -0.641663       -17.4606 
  26   2.0000      -0.639704       -17.4072 
  27   2.0000      -0.639640       -17.4055 
  28   2.0000      -0.638835       -17.3836 
  29   0.0000      -0.557070       -15.1587 
  30   0.0000      -0.530230       -14.4283 
  31   0.0000      -0.408193       -11.1075 
  32   0.0000      -0.360408        -9.8072 
  33   0.0000      -0.348424        -9.4811 
  34   0.0000      -0.328796        -8.9470 
  35   0.0000      -0.322162        -8.7665 
  36   0.0000      -0.291403        -7.9295 
  37   0.0000      -0.250402        -6.8138 
  38   0.0000      -0.203204        -5.5295 
  39   0.0000      -0.187056        -5.0900 
  40   0.0000      -0.168857        -4.5948 
  41   0.0000      -0.167751        -4.5647 
  42   0.0000      -0.165642        -4.5073 
  43   0.0000      -0.137035        -3.7289 
  44   0.0000      -0.128113        -3.4861 
  45   0.0000      -0.114410        -3.1132 
  46   0.0000      -0.089750        -2.4422 
  47   0.0000      -0.087087        -2.3698 
  48   0.0000      -0.076806        -2.0900 
  49   0.0000      -0.066566        -1.8114 
  50   0.0000       0.026612         0.7241 
  51   0.0000       0.104067         2.8318 
  52   0.0000       0.398191        10.8353 
  53   0.0000       0.431751        11.7485 
  54   0.0000       0.436937        11.8897 
  55   0.0000       0.448949        12.2165 
  56   0.0000       0.450529        12.2595 
  57   0.0000       0.458530        12.4772 
  58   0.0000       0.463120        12.6021 
  59   0.0000       0.466020        12.6811 
  60   0.0000       0.467902        12.7323 
  61   0.0000       0.529919        14.4198 
  62   0.0000       0.758313        20.6347 
  63   0.0000       1.084323        29.5059 
  64   0.0000       1.235212        33.6118 
  65   0.0000       1.427782        38.8519 
  66   0.0000       1.497055        40.7369 
  67   0.0000       1.539895        41.9027 
  68   0.0000       1.548703        42.1424 
  69   0.0000       1.575687        42.8766 
  70   0.0000       1.601973        43.5919 
  71   0.0000       1.678248        45.6674 
  72   0.0000       1.738191        47.2986 
  73   0.0000       1.786673        48.6178 
  74   0.0000       2.100515        57.1579 
  75   0.0000       2.447594        66.6024 
  76   0.0000       2.506116        68.1949 
  77   0.0000       3.101726        84.4023 
  78   0.0000       3.102264        84.4169 
  79   0.0000       3.108115        84.5761 
  80   0.0000       3.111639        84.6720 
  81   0.0000       3.113817        84.7313 
  82   0.0000       3.114802        84.7581 
  83   0.0000       3.117514        84.8319 
  84   0.0000       3.155892        85.8762 
  85   0.0000       3.179214        86.5108 
  86   0.0000       3.226790        87.8054 
  87   0.0000       3.608692        98.1975 
  88   0.0000       5.202730       141.5735 
  89   0.0000       5.203081       141.5830 
  90   0.0000       5.203463       141.5934 
  91   0.0000       5.204980       141.6347 
  92   0.0000       5.205939       141.6608 
  93   0.0000       5.205968       141.6616 
  94   0.0000       5.206242       141.6690 
  95   0.0000       5.206509       141.6763 
  96   0.0000       5.207025       141.6904 
  97   0.0000       5.207042       141.6908 
  98   0.0000       5.208132       141.7205 
  99   0.0000       5.208133       141.7205 
 100   0.0000       5.211754       141.8190 
 101   0.0000       5.216412       141.9458 

                    ********************************
                    * MULLIKEN POPULATION ANALYSIS *
                    ********************************

-----------------------
MULLIKEN ATOMIC CHARGES
-----------------------
   0 Cu:    0.856161
   1 Cu:    0.937337
   2 H :    0.039831
   3 H :    0.166672
Sum of atomic charges:    2.0000000

--------------------------------
MULLIKEN REDUCED ORBITAL CHARGES
--------------------------------
  0 Cus       :     6.108483  s :     6.108483
      pz      :     4.020192  p :    12.079042
      px      :     4.035260
      py      :     4.023590
      dz2     :     1.986421  d :     9.956302
      dxz     :     1.984617
      dyz     :     1.987450
      dx2y2   :     1.996877
      dxy     :     2.000935
      f0      :     0.000002  f :     0.000013
      f+1     :     0.000001
      f-1     :     0.000000
      f+2     :     0.000000
      f-2     :     0.000006
      f+3     :     0.000001
      f-3     :     0.000003
  1 Cus       :     6.046134  s :     6.046134
      pz      :     4.003903  p :    12.029413
      px      :     4.014581
      py      :     4.010929
      dz2     :     1.997697  d :     9.987111
      dxz     :     1.997610
      dyz     :     1.997713
      dx2y2   :     1.999064
      dxy     :     1.995026
      f0      :     0.000001  f :     0.000005
      f+1     :     0.000000
      f-1     :     0.000000
      f+2     :     0.000000
      f-2     :     0.000001
      f+3     :     0.000001
      f-3     :     0.000001
  2 H s       :     0.947668  s :     0.947668
      pz      :     0.005389  p :     0.012501
      px      :     0.005579
      py      :     0.001534
  3 H s       :     0.819923  s :     0.819923
      pz      :     0.009627  p :     0.013405
      px      :     0.002828
      py      :     0.000951


                     *******************************
                     * LOEWDIN POPULATION ANALYSIS *
                     *******************************

----------------------
LOEWDIN ATOMIC CHARGES
----------------------
   0 Cu:    0.825524
   1 Cu:    0.905952
   2 H :    0.101220
   3 H :    0.167304

-------------------------------
LOEWDIN REDUCED ORBITAL CHARGES
-------------------------------
  0 Cus       :     6.099225  s :     6.099225
      pz      :     4.020964  p :    12.076531
      px      :     4.033447
      py      :     4.022120
      dz2     :     1.990302  d :     9.998704
      dxz     :     1.997020
      dyz     :     1.996178
      dx2y2   :     1.998025
      dxy     :     2.017179
      f0      :     0.000002  f :     0.000016
      f+1     :     0.000001
      f-1     :     0.000001
      f+2     :     0.000000
      f-2     :     0.000008
      f+3     :     0.000001
      f-3     :     0.000003
  1 Cus       :     6.046783  s :     6.046783
      pz      :     4.003465  p :    12.025797
      px      :     4.012578
      py      :     4.009754
      dz2     :     2.001374  d :    10.021463
      dxz     :     2.003371
      dyz     :     2.002058
      dx2y2   :     1.999659
      dxy     :     2.015002
      f0      :     0.000001  f :     0.000005
      f+1     :     0.000000
      f-1     :     0.000000
      f+2     :     0.000000
      f-2     :     0.000001
      f+3     :     0.000001
      f-3     :     0.000001
  2 H s       :     0.868170  s :     0.868170
      pz      :     0.013726  p :     0.030610
      px      :     0.013172
      py      :     0.003712
  3 H s       :     0.797577  s :     0.797577
      pz      :     0.023113  p :     0.035119
      px      :     0.009766
      py      :     0.002240


                      *****************************
                      * MAYER POPULATION ANALYSIS *
                      *****************************

  NA   - Mulliken gross atomic population
  ZA   - Total nuclear charge
  QA   - Mulliken gross atomic charge
  VA   - Mayer's total valence
  BVA  - Mayer's bonded valence
  FA   - Mayer's free valence

  ATOM       NA         ZA         QA         VA         BVA        FA
  0 Cu    28.1438    29.0000     0.8562     0.4559     0.4559    -0.0000
  1 Cu    28.0627    29.0000     0.9373     0.1864     0.1864    -0.0000
  2 H      0.9602     1.0000     0.0398     1.0152     1.0152    -0.0000
  3 H      0.8333     1.0000     0.1667     0.9757     0.9757    -0.0000

  Mayer bond orders larger than 0.100000
B(  0-Cu,  2-H ) :   0.2029 B(  0-Cu,  3-H ) :   0.1847 B(  2-H ,  3-H ) :   0.7425 


-------
TIMINGS
-------

Total SCF time: 0 days 0 hours 0 min 0 sec 

Total time                  ....       0.945 sec
Sum of individual times     ....       0.878 sec  ( 92.9%)

Fock matrix formation       ....       0.563 sec  ( 59.6%)
  Split-RI-J                ....       0.193 sec  ( 34.4% of F)
  XC integration            ....       0.350 sec  ( 62.1% of F)
    Basis function eval.    ....       0.097 sec  ( 27.6% of XC)
    Density eval.           ....       0.064 sec  ( 18.3% of XC)
    XC-Functional eval.     ....       0.033 sec  (  9.4% of XC)
    XC-Potential eval.      ....       0.056 sec  ( 16.0% of XC)
Diagonalization             ....       0.042 sec  (  4.4%)
Density matrix formation    ....       0.002 sec  (  0.2%)
Population analysis         ....       0.003 sec  (  0.3%)
Initial guess               ....       0.013 sec  (  1.4%)
Orbital Transformation      ....       0.000 sec  (  0.0%)
Orbital Orthonormalization  ....       0.000 sec  (  0.0%)
DIIS solution               ....       0.039 sec  (  4.1%)
Grid generation             ....       0.217 sec  ( 23.0%)

Maximum memory used throughout the entire SCF-calculation: 10.8 MB


-------------------------------------------------------------------------------
                          DFT DISPERSION CORRECTION                            
                                                                               
                              DFTD3 V3.1  Rev 1                                
                          USING Becke-Johnson damping                          
-------------------------------------------------------------------------------
The PBE functional is recognized
Active option DFTDOPT                   ...         4   

molecular C6(AA) [au] = 1462.657416 


            DFT-D V3
 parameters
 s6 scaling factor         :     1.0000 
 a1 scaling factor         :     0.4289 
 s8 scaling factor         :     0.7875 
 a2 scaling factor         :     4.4407 
 ad hoc parameters k1-k3   :    16.0000     1.3333    -4.0000 

 Edisp/kcal,au: -1.811569881612  -0.002886920060 
 E6   /kcal   :  -1.063745428 
 E8   /kcal   :  -0.747824453 
 % E8         :  41.280464026 

-------------------------   ----------------
Dispersion correction           -0.002886920
-------------------------   ----------------


-------------------------   --------------------
FINAL SINGLE POINT ENERGY     -3280.938538780639
-------------------------   --------------------



           ************************************************************
           *        Program running with 8 parallel MPI-processes     *
           *              working on a common directory               *
           ************************************************************
------------------------------------------------------------------------------
                         ORCA SCF GRADIENT CALCULATION
------------------------------------------------------------------------------

Gradient of the Kohn-Sham DFT energy:
Kohn-Sham wavefunction type      ... RKS
Hartree-Fock exchange scaling    ...    0.000
Number of operators              ...    1
Number of atoms                  ...    4
Basis set dimensions             ...  102
Integral neglect threshold       ... 2.5e-11
Integral primitive cutoff        ... 2.5e-12
SHARK Integral package           ... ON

Nuc. rep. gradient       (SHARK) ... done (  0.0 sec)
HCore & Overlap gradient (SHARK) ... done (  0.0 sec)
RI-J gradient            (SHARK) ... done (  0.2 sec)
Exchange-correlation gradient    ... done
Dispersion correction            ... done

------------------
CARTESIAN GRADIENT
------------------

   1   Cu  :    0.003854204   -0.003463041    0.002646111
   2   Cu  :   -0.008851183    0.007513798   -0.000162343
   3   H   :   -0.074325718    0.019295557   -0.109115258
   4   H   :    0.079322697   -0.023346314    0.106631490

Difference to translation invariance:
           :   -0.0000000003    0.0000000002    0.0000000001

Difference to rotation invariance:
           :   -0.0000091301    0.0000009532   -0.0000132449

Norm of the cartesian gradient     ...    0.1902074186
RMS gradient                       ...    0.0549081522
MAX gradient                       ...    0.1091152585

-------
TIMINGS
-------

Total SCF gradient time            ...        0.389 sec

One electron gradient       ....       0.007 sec  (  1.9%)
RI-J Coulomb gradient       ....       0.156 sec  ( 40.1%)
XC gradient                 ....       0.067 sec  ( 17.3%)

Maximum memory used throughout the entire SCFGRAD-calculation: 27.6 MB
------------------------------------------------------------------------------
                         ORCA GEOMETRY RELAXATION STEP
------------------------------------------------------------------------------

Reading the OPT-File                    .... done
Getting information on internals        .... done
Copying old internal coords+grads       .... done
Making the new internal coordinates     .... (new redundants).... done
Validating the new internal coordinates .... (new redundants).... done
Calculating the B-matrix                .... done
Calculating the G,G- and P matrices     .... done
Transforming gradient to internals      .... done
Projecting the internal gradient        .... done
Number of atoms                         ....   4
Number of internal coordinates          ....  11
Current Energy                          .... -3280.938538781 Eh
Current gradient norm                   ....     0.190207419 Eh/bohr
Maximum allowed component of the step   ....  0.300
Current trust radius                    ....  0.300
Evaluating the initial hessian          ....  (Almloef) done
Projecting the Hessian                  .... done
Forming the augmented Hessian           .... done
Diagonalizing the augmented Hessian     .... done
Last element of RFO vector              ....  0.944330978
Lowest eigenvalues of augmented Hessian:
 -0.043779843  0.056367577  0.146399861  0.167339596  0.223407969
Length of the computed step             ....  0.348391584
Warning: the length of the step is outside the trust region - taking restricted step instead
The input lambda is                     ....    -0.043780
   iter:   1  x=   -0.082488  g=    0.810597 f(x)=     0.031377
   iter:   2  x=   -0.095224  g=    0.514531 f(x)=     0.006553
   iter:   3  x=   -0.096050  g=    0.457218 f(x)=     0.000378
   iter:   4  x=   -0.096053  g=    0.453886 f(x)=     0.000001
   iter:   5  x=   -0.096053  g=    0.453874 f(x)=     0.000000
   iter:   6  x=   -0.096053  g=    0.453874 f(x)=    -0.000000
The output lambda is                    ....    -0.096053 (6 iterations)
The final length of the internal step   ....  0.300000000
Converting the step to cartesian space:
 Initial RMS(Int)=    0.0904534034
Transforming coordinates:
 Iter   0:  RMS(Cart)=    0.0576372550 RMS(Int)=    0.0709487587
 Iter   1:  RMS(Cart)=    0.0152582774 RMS(Int)=    0.0206549787
 Iter   2:  RMS(Cart)=    0.0004303022 RMS(Int)=    0.0008268775
 Iter   3:  RMS(Cart)=    0.0000492019 RMS(Int)=    0.0000958846
 Iter   4:  RMS(Cart)=    0.0000070980 RMS(Int)=    0.0000135741
 Iter   5:  RMS(Cart)=    0.0000010047 RMS(Int)=    0.0000019325
 Iter   6:  RMS(Cart)=    0.0000001428 RMS(Int)=    0.0000002764
 Iter   7:  RMS(Cart)=    0.0000000204 RMS(Int)=    0.0000000397
done
Storing new coordinates                 .... done

                                .--------------------.
          ----------------------|Geometry convergence|-------------------------
          Item                value                   Tolerance       Converged
          ---------------------------------------------------------------------
          RMS gradient        0.0390893756            0.0001000000      NO
          MAX gradient        0.1215569709            0.0003000000      NO
          RMS step            0.0904534034            0.0020000000      NO
          MAX step            0.2723761986            0.0040000000      NO
          ........................................................
          Max(Bonds)      0.1441      Max(Angles)    4.17
          Max(Dihed)        0.97      Max(Improp)    0.00
          ---------------------------------------------------------------------

The optimization has not yet converged - more geometry cycles are needed


    ---------------------------------------------------------------------------
                         Redundant Internal Coordinates
                            (Angstroem and degrees)

        Definition                    Value    dE/dq     Step     New-Value
    ----------------------------------------------------------------------------
     1. B(H   2,Cu  0)                1.9826 -0.007082  0.0130    1.9956   
     2. B(H   2,Cu  1)                2.2299 -0.010905  0.0381    2.2680   
     3. B(H   3,Cu  0)                1.9504 -0.000922  0.0030    1.9534   
     4. B(H   3,H   2)                0.6400 -0.121557  0.1441    0.7841   
     5. A(H   2,Cu  0,H   3)           18.71 -0.032757    4.17     22.88   
     6. A(Cu  0,H   2,H   3)           77.80  0.016276   -2.30     75.49   
     7. A(Cu  1,H   2,H   3)          142.83 -0.000913   -0.24    142.60   
     8. A(Cu  0,H   2,Cu  1)          135.29 -0.015350    2.37    137.66   
     9. A(Cu  0,H   3,H   2)           83.49  0.016481   -1.87     81.63   
    10. D(Cu  1,H   2,Cu  0,H   3)   -160.12 -0.003137    0.97   -159.16   
    11. D(Cu  0,H   3,H   2,Cu  1)    156.68 -0.002424    0.01    156.69   
    ----------------------------------------------------------------------------

         *************************************************************
         *                GEOMETRY OPTIMIZATION CYCLE   2            *
         *************************************************************
---------------------------------
CARTESIAN COORDINATES (ANGSTROEM)
---------------------------------
  Cu    -1.621895    1.519731    0.786710
  Cu     1.446120   -1.010716    0.812455
  H     -0.125354    0.430710    0.039985
  H     -0.588701    0.575795   -0.575770

----------------------------
CARTESIAN COORDINATES (A.U.)
----------------------------
  NO LB      ZA    FRAG     MASS         X           Y           Z
   0 Cu   29.0000    0    63.550   -3.064938    2.871875    1.486666
   1 Cu   29.0000    0    63.550    2.732772   -1.909977    1.535317
   2 H     1.0000    0     1.008   -0.236885    0.813924    0.075561
   3 H     1.0000    0     1.008   -1.112484    1.088095   -1.088047

--------------------------------
INTERNAL COORDINATES (ANGSTROEM)
--------------------------------
 Cu     0   0   0     0.000000000000     0.00000000     0.00000000
 Cu     1   0   0     3.977002271297     0.00000000     0.00000000
 H      1   2   0     1.995795847523    22.59780615     0.00000000
 H      3   1   2     0.784151974207    75.50858428   159.12703512

---------------------------
INTERNAL COORDINATES (A.U.)
---------------------------
 Cu     0   0   0     0.000000000000     0.00000000     0.00000000
 Cu     1   0   0     7.515445126734     0.00000000     0.00000000
 H      1   2   0     3.771507571037    22.59780615     0.00000000
 H      3   1   2     1.481832478624    75.50858428   159.12703512



           ************************************************************
           *        Program running with 8 parallel MPI-processes     *
           *              working on a common directory               *
           ************************************************************
------------------------------------------------------------------------------
                   ___                                                        
                  /   \      - P O W E R E D   B Y -                         
                 /     \                                                     
                 |  |  |   _    _      __       _____    __    __             
                 |  |  |  | |  | |    /  \     |  _  \  |  |  /  |          
                  \  \/   | |  | |   /    \    | | | |  |  | /  /          
                 / \  \   | |__| |  /  /\  \   | |_| |  |  |/  /          
                |  |  |   |  __  | /  /__\  \  |    /   |      \           
                |  |  |   | |  | | |   __   |  |    \   |  |\   \          
                \     /   | |  | | |  |  |  |  | |\  \  |  | \   \       
                 \___/    |_|  |_| |__|  |__|  |_| \__\ |__|  \__/        
                                                                              
                      - O R C A' S   B I G   F R I E N D -                    
                                      &                                       
                       - I N T E G R A L  F E E D E R -                       
                                                                              
 v1 FN, 2020, v2 2021                                                         
------------------------------------------------------------------------------


Reading SHARK input file cu2.SHARKINP.tmp ... ok
----------------------
SHARK INTEGRAL PACKAGE
----------------------

Number of atoms                             ...      4
Number of basis functions                   ...    102
Number of shells                            ...     38
Maximum angular momentum                    ...      3
Integral batch strategy                     ... SHARK/LIBINT Hybrid
RI-J (if used) integral strategy            ... SPLIT-RIJ (Revised 2003 algorithm where possible)
Printlevel                                  ...      1
Contraction scheme used                     ... SEGMENTED contraction
Coulomb Range Separation                    ... NOT USED
Exchange Range Separation                   ... NOT USED
Finite Nucleus Model                        ... NOT USED
Auxiliary Coulomb fitting basis             ... AVAILABLE
   # of basis functions in Aux-J            ...    204
   # of shells in Aux-J                     ...     56
   Maximum angular momentum in Aux-J        ...      4
Auxiliary J/K fitting basis                 ... NOT available
Auxiliary Correlation fitting basis         ... NOT available
Auxiliary 'external' fitting basis          ... NOT available
Integral threshold                          ...     2.500000e-11
Primitive cut-off                           ...     2.500000e-12
Primitive pair pre-selection threshold      ...     2.500000e-12

Calculating pre-screening integrals         ... done (  0.1 sec) Dimension = 38
Organizing shell pair data                  ... done (  0.0 sec)
Shell pair information
Total number of shell pairs                 ...       741
Shell pairs after pre-screening             ...       649
Total number of primitive shell pairs       ...      3694
Primitive shell pairs kept                  ...      2512
          la=0 lb=0:    154 shell pairs
          la=1 lb=0:    157 shell pairs
          la=1 lb=1:     47 shell pairs
          la=2 lb=0:    130 shell pairs
          la=2 lb=1:     70 shell pairs
          la=2 lb=2:     33 shell pairs
          la=3 lb=0:     28 shell pairs
          la=3 lb=1:     16 shell pairs
          la=3 lb=2:     12 shell pairs
          la=3 lb=3:      2 shell pairs

Calculating one electron integrals          ... done (  0.0 sec)
Calculating RI/J V-Matrix + Cholesky decomp.... done (  0.0 sec)
Calculating Nuclear repulsion               ... done (  0.0 sec) ENN=    140.127967022528 Eh

SHARK setup successfully completed in   0.3 seconds

Maximum memory used throughout the entire GTOINT-calculation: 17.2 MB


           ************************************************************
           *        Program running with 8 parallel MPI-processes     *
           *              working on a common directory               *
           ************************************************************

Diagonalization of the overlap matrix:
Smallest eigenvalue                        ... 9.301e-03
Time for diagonalization                   ...    0.007 sec
Threshold for overlap eigenvalues          ... 1.000e-08
Number of eigenvalues below threshold      ... 0
Time for construction of square roots      ...    0.002 sec
Total time needed                          ...    0.010 sec

-------------------
DFT GRID GENERATION
-------------------

General Integration Accuracy     IntAcc      ... 4.388
Radial Grid Type                 RadialGrid  ... OptM3 with GC (2021)
Angular Grid (max. ang.)         AngularGrid ... 4 (Lebedev-302)
Angular grid pruning method      GridPruning ... 4 (adaptive)
Weight generation scheme         WeightScheme... Becke
Basis function cutoff            BFCut       ... 1.0000e-11
Integration weight cutoff        WCut        ... 1.0000e-14
Angular grids for H and He will be reduced by one unit
Partially contracted basis set               ... off
Rotationally invariant grid construction     ... off

Total number of grid points                  ...    29219
Total number of batches                      ...      458
Average number of points per batch           ...       63
Average number of grid points per atom       ...     7305
Time for grid setup =    0.243 sec

--------------
SCF ITERATIONS
--------------
ITER       Energy         Delta-E        Max-DP      RMS-DP      [F,P]     Damp
               ***  Starting incremental Fock matrix formation  ***
  0  -3280.9504441576   0.000000000000 0.00535828  0.00016114  0.0615242 0.7000
  1  -3280.9516533798  -0.001209222199 0.00420782  0.00014219  0.0425642 0.7000
                               ***Turning on DIIS***
  2  -3280.9524394387  -0.000786058823 0.00959471  0.00034491  0.0268280 0.0000
  3  -3280.9539139908  -0.001474552191 0.00280954  0.00010127  0.0080915 0.0000
  4  -3280.9540134486  -0.000099457755 0.00101023  0.00004933  0.0014200 0.0000
  5  -3280.9540134501  -0.000000001502 0.00063060  0.00002712  0.0033317 0.0000
  6  -3280.9540233617  -0.000009911636 0.00176785  0.00004125  0.0002704 0.0000
  7  -3280.9540244143  -0.000001052589 0.00023611  0.00000543  0.0000920 0.0000
  8  -3280.9540244401  -0.000000025733 0.00005906  0.00000150  0.0000624 0.0000
  9  -3280.9540244489  -0.000000008878 0.00001393  0.00000044  0.0000190 0.0000
 10  -3280.9540244547  -0.000000005746 0.00000673  0.00000025  0.0000192 0.0000
 11  -3280.9540244503   0.000000004372 0.00000136  0.00000005  0.0000035 0.0000
                 **** Energy Check signals convergence ****

               *****************************************************
               *                     SUCCESS                       *
               *           SCF CONVERGED AFTER  12 CYCLES          *
               *****************************************************

Total Energy       :        -3280.95402444 Eh          -89279.29788 eV
  Last Energy change         ...    7.2328e-09  Tolerance :   1.0000e-08
  Last MAX-Density change    ...    4.8404e-07  Tolerance :   1.0000e-07
             **** THE GBW FILE WAS UPDATED (cu2.gbw) ****
             **** DENSITY cu2.scfp WAS UPDATED ****
             **** ENERGY FILE WAS UPDATED (cu2.en.tmp) ****
             **** THE GBW FILE WAS UPDATED (cu2.gbw) ****
             **** DENSITY cu2.scfp WAS UPDATED ****
Total SCF time: 0 days 0 hours 0 min 0 sec 

Maximum memory used throughout the entire SCF-calculation: 10.8 MB


-------------------------------------------------------------------------------
                          DFT DISPERSION CORRECTION                            
                                                                               
                              DFTD3 V3.1  Rev 1                                
                          USING Becke-Johnson damping                          
-------------------------------------------------------------------------------
-------------------------   ----------------
Dispersion correction           -0.002841705
-------------------------   ----------------


-------------------------   --------------------
FINAL SINGLE POINT ENERGY     -3280.956866148376
-------------------------   --------------------



           ************************************************************
           *        Program running with 8 parallel MPI-processes     *
           *              working on a common directory               *
           ************************************************************
------------------------------------------------------------------------------
                         ORCA SCF GRADIENT CALCULATION
------------------------------------------------------------------------------

Gradient of the Kohn-Sham DFT energy:
Kohn-Sham wavefunction type      ... RKS
Hartree-Fock exchange scaling    ...    0.000
Number of operators              ...    1
Number of atoms                  ...    4
Basis set dimensions             ...  102
Integral neglect threshold       ... 2.5e-11
Integral primitive cutoff        ... 2.5e-12
SHARK Integral package           ... ON

Nuc. rep. gradient       (SHARK) ... done (  0.0 sec)
HCore & Overlap gradient (SHARK) ... done (  0.0 sec)
RI-J gradient            (SHARK) ... done (  0.2 sec)
Exchange-correlation gradient    ... done
Dispersion correction            ... done

------------------
CARTESIAN GRADIENT
------------------

   1   Cu  :    0.000383606   -0.000705392    0.004873830
   2   Cu  :   -0.007692342    0.006491225   -0.000013669
   3   H   :    0.000708903   -0.003181958   -0.010029376
   4   H   :    0.006599833   -0.002603875    0.005169215

Difference to translation invariance:
           :   -0.0000000000   -0.0000000000   -0.0000000001

Difference to rotation invariance:
           :   -0.0000255214   -0.0000170448   -0.0000005540

Norm of the cartesian gradient     ...    0.0177195315
RMS gradient                       ...    0.0051151881
MAX gradient                       ...    0.0100293763

-------
TIMINGS
-------

Total SCF gradient time            ...        0.431 sec

One electron gradient       ....       0.016 sec  (  3.8%)
RI-J Coulomb gradient       ....       0.186 sec  ( 43.2%)
XC gradient                 ....       0.067 sec  ( 15.6%)

Maximum memory used throughout the entire SCFGRAD-calculation: 27.6 MB
------------------------------------------------------------------------------
                         ORCA GEOMETRY RELAXATION STEP
------------------------------------------------------------------------------

Reading the OPT-File                    .... done
Getting information on internals        .... done
Copying old internal coords+grads       .... done
Making the new internal coordinates     .... (new redundants).... done
Validating the new internal coordinates .... (new redundants).... done
Calculating the B-matrix                .... done
Calculating the G,G- and P matrices     .... done
Transforming gradient to internals      .... done
Projecting the internal gradient        .... done
Number of atoms                         ....   4
Number of internal coordinates          ....  11
Current Energy                          .... -3280.956866148 Eh
Current gradient norm                   ....     0.017719532 Eh/bohr
Maximum allowed component of the step   ....  0.300
Current trust radius                    ....  0.300
Updating the Hessian (BFGS)             .... done
Forming the augmented Hessian           .... done
Diagonalizing the augmented Hessian     .... done
Last element of RFO vector              ....  0.983871989
Lowest eigenvalues of augmented Hessian:
 -0.002433305  0.056300546  0.146592861  0.165667140  0.221517181
Length of the computed step             ....  0.181806178
The final length of the internal step   ....  0.181806178
Converting the step to cartesian space:
 Initial RMS(Int)=    0.0548166250
Transforming coordinates:
 Iter   0:  RMS(Cart)=    0.0525833026 RMS(Int)=    0.0549464275
 Iter   1:  RMS(Cart)=    0.0003598928 RMS(Int)=    0.0004001748
 Iter   2:  RMS(Cart)=    0.0000078826 RMS(Int)=    0.0000105823
 Iter   3:  RMS(Cart)=    0.0000001051 RMS(Int)=    0.0000002174
 Iter   4:  RMS(Cart)=    0.0000000053 RMS(Int)=    0.0000000087
done
Storing new coordinates                 .... done

                                .--------------------.
          ----------------------|Geometry convergence|-------------------------
          Item                value                   Tolerance       Converged
          ---------------------------------------------------------------------
          Energy change      -0.0183273677            0.0000050000      NO
          RMS gradient        0.0051487367            0.0001000000      NO
          MAX gradient        0.0094602990            0.0003000000      NO
          RMS step            0.0548166250            0.0020000000      NO
          MAX step            0.1702740827            0.0040000000      NO
          ........................................................
          Max(Bonds)      0.0901      Max(Angles)    2.15
          Max(Dihed)        1.47      Max(Improp)    0.00
          ---------------------------------------------------------------------

The optimization has not yet converged - more geometry cycles are needed


    ---------------------------------------------------------------------------
                         Redundant Internal Coordinates
                            (Angstroem and degrees)

        Definition                    Value    dE/dq     Step     New-Value
    ----------------------------------------------------------------------------
     1. B(H   2,Cu  0)                1.9958 -0.001504  0.0021    1.9979   
     2. B(H   2,Cu  1)                2.2680 -0.009460  0.0901    2.3581   
     3. B(H   3,Cu  0)                1.9532  0.002764 -0.0074    1.9457   
     4. B(H   3,H   2)                0.7842 -0.008569  0.0140    0.7981   
     5. A(H   2,Cu  0,H   3)           22.87 -0.002354    0.42     23.30   
     6. A(Cu  0,H   2,H   3)           75.51  0.003683   -0.99     74.52   
     7. A(Cu  1,H   2,H   3)          142.60  0.004016   -1.45    141.15   
     8. A(Cu  0,H   2,Cu  1)          137.64 -0.008001    2.15    139.79   
     9. A(Cu  0,H   3,H   2)           81.62 -0.001329    0.56     82.18   
    10. D(Cu  1,H   2,Cu  0,H   3)   -159.13 -0.002125    1.47   -157.66   
    11. D(Cu  0,H   3,H   2,Cu  1)    156.72 -0.003638    0.02    156.74   
    ----------------------------------------------------------------------------

         *************************************************************
         *                GEOMETRY OPTIMIZATION CYCLE   3            *
         *************************************************************
---------------------------------
CARTESIAN COORDINATES (ANGSTROEM)
---------------------------------
  Cu    -1.650006    1.542194    0.764969
  Cu     1.505966   -1.062395    0.817168
  H     -0.135555    0.448767    0.053893
  H     -0.610235    0.586954   -0.572649

----------------------------
CARTESIAN COORDINATES (A.U.)
----------------------------
  NO LB      ZA    FRAG     MASS         X           Y           Z
   0 Cu   29.0000    0    63.550   -3.118059    2.914325    1.445582
   1 Cu   29.0000    0    63.550    2.845863   -2.007636    1.544223
   2 H     1.0000    0     1.008   -0.256162    0.848047    0.101842
   3 H     1.0000    0     1.008   -1.153176    1.109182   -1.082151

--------------------------------
INTERNAL COORDINATES (ANGSTROEM)
--------------------------------
 Cu     0   0   0     0.000000000000     0.00000000     0.00000000
 Cu     1   0   0     4.092281367456     0.00000000     0.00000000
 H      1   2   0     1.998692790433    21.87362161     0.00000000
 H      3   1   2     0.798104705727    74.56831646   157.56951563

---------------------------
INTERNAL COORDINATES (A.U.)
---------------------------
 Cu     0   0   0     0.000000000000     0.00000000     0.00000000
 Cu     1   0   0     7.733291047440     0.00000000     0.00000000
 H      1   2   0     3.776981999761    21.87362161     0.00000000
 H      3   1   2     1.508199320018    74.56831646   157.56951563



           ************************************************************
           *        Program running with 8 parallel MPI-processes     *
           *              working on a common directory               *
           ************************************************************
------------------------------------------------------------------------------
                   ___                                                        
                  /   \      - P O W E R E D   B Y -                         
                 /     \                                                     
                 |  |  |   _    _      __       _____    __    __             
                 |  |  |  | |  | |    /  \     |  _  \  |  |  /  |          
                  \  \/   | |  | |   /    \    | | | |  |  | /  /          
                 / \  \   | |__| |  /  /\  \   | |_| |  |  |/  /          
                |  |  |   |  __  | /  /__\  \  |    /   |      \           
                |  |  |   | |  | | |   __   |  |    \   |  |\   \          
                \     /   | |  | | |  |  |  |  | |\  \  |  | \   \       
                 \___/    |_|  |_| |__|  |__|  |_| \__\ |__|  \__/        
                                                                              
                      - O R C A' S   B I G   F R I E N D -                    
                                      &                                       
                       - I N T E G R A L  F E E D E R -                       
                                                                              
 v1 FN, 2020, v2 2021                                                         
------------------------------------------------------------------------------


Reading SHARK input file cu2.SHARKINP.tmp ... ok
----------------------
SHARK INTEGRAL PACKAGE
----------------------

Number of atoms                             ...      4
Number of basis functions                   ...    102
Number of shells                            ...     38
Maximum angular momentum                    ...      3
Integral batch strategy                     ... SHARK/LIBINT Hybrid
RI-J (if used) integral strategy            ... SPLIT-RIJ (Revised 2003 algorithm where possible)
Printlevel                                  ...      1
Contraction scheme used                     ... SEGMENTED contraction
Coulomb Range Separation                    ... NOT USED
Exchange Range Separation                   ... NOT USED
Finite Nucleus Model                        ... NOT USED
Auxiliary Coulomb fitting basis             ... AVAILABLE
   # of basis functions in Aux-J            ...    204
   # of shells in Aux-J                     ...     56
   Maximum angular momentum in Aux-J        ...      4
Auxiliary J/K fitting basis                 ... NOT available
Auxiliary Correlation fitting basis         ... NOT available
Auxiliary 'external' fitting basis          ... NOT available
Integral threshold                          ...     2.500000e-11
Primitive cut-off                           ...     2.500000e-12
Primitive pair pre-selection threshold      ...     2.500000e-12

Calculating pre-screening integrals         ... done (  0.0 sec) Dimension = 38
Organizing shell pair data                  ... done (  0.0 sec)
Shell pair information
Total number of shell pairs                 ...       741
Shell pairs after pre-screening             ...       647
Total number of primitive shell pairs       ...      3694
Primitive shell pairs kept                  ...      2505
          la=0 lb=0:    154 shell pairs
          la=1 lb=0:    157 shell pairs
          la=1 lb=1:     47 shell pairs
          la=2 lb=0:    130 shell pairs
          la=2 lb=1:     70 shell pairs
          la=2 lb=2:     33 shell pairs
          la=3 lb=0:     28 shell pairs
          la=3 lb=1:     14 shell pairs
          la=3 lb=2:     12 shell pairs
          la=3 lb=3:      2 shell pairs

Calculating one electron integrals          ... done (  0.0 sec)
Calculating RI/J V-Matrix + Cholesky decomp.... done (  0.0 sec)
Calculating Nuclear repulsion               ... done (  0.0 sec) ENN=    136.568484448563 Eh

SHARK setup successfully completed in   0.1 seconds

Maximum memory used throughout the entire GTOINT-calculation: 17.2 MB


           ************************************************************
           *        Program running with 8 parallel MPI-processes     *
           *              working on a common directory               *
           ************************************************************

Diagonalization of the overlap matrix:
Smallest eigenvalue                        ... 1.001e-02
Time for diagonalization                   ...    0.006 sec
Threshold for overlap eigenvalues          ... 1.000e-08
Number of eigenvalues below threshold      ... 0
Time for construction of square roots      ...    0.002 sec
Total time needed                          ...    0.009 sec

-------------------
DFT GRID GENERATION
-------------------

General Integration Accuracy     IntAcc      ... 4.388
Radial Grid Type                 RadialGrid  ... OptM3 with GC (2021)
Angular Grid (max. ang.)         AngularGrid ... 4 (Lebedev-302)
Angular grid pruning method      GridPruning ... 4 (adaptive)
Weight generation scheme         WeightScheme... Becke
Basis function cutoff            BFCut       ... 1.0000e-11
Integration weight cutoff        WCut        ... 1.0000e-14
Angular grids for H and He will be reduced by one unit
Partially contracted basis set               ... off
Rotationally invariant grid construction     ... off

Total number of grid points                  ...    29221
Total number of batches                      ...      458
Average number of points per batch           ...       63
Average number of grid points per atom       ...     7305
Time for grid setup =    0.248 sec

--------------
SCF ITERATIONS
--------------
ITER       Energy         Delta-E        Max-DP      RMS-DP      [F,P]     Damp
               ***  Starting incremental Fock matrix formation  ***
  0  -3280.9562777465   0.000000000000 0.00166835  0.00005937  0.0082830 0.7000
  1  -3280.9563232360  -0.000045489562 0.00141159  0.00005941  0.0056345 0.7000
                               ***Turning on DIIS***
  2  -3280.9563582074  -0.000034971369 0.00352944  0.00016197  0.0034253 0.0000
  3  -3280.9564358870  -0.000077679629 0.00083881  0.00002633  0.0013787 0.0000
  4  -3280.9564392302  -0.000003343167 0.00142019  0.00003971  0.0001984 0.0000
  5  -3280.9564395459  -0.000000315721 0.00020304  0.00000798  0.0007679 0.0000
  6  -3280.9564402210  -0.000000675117 0.00004827  0.00000211  0.0000982 0.0000
  7  -3280.9564402147   0.000000006343 0.00003789  0.00000150  0.0001185 0.0000
  8  -3280.9564402282  -0.000000013557 0.00000803  0.00000031  0.0000174 0.0000
  9  -3280.9564402307  -0.000000002453 0.00000252  0.00000008  0.0000037 0.0000
                            ***DIIS convergence achieved***

               *****************************************************
               *                     SUCCESS                       *
               *           SCF CONVERGED AFTER  10 CYCLES          *
               *****************************************************

Total Energy       :        -3280.95644022 Eh          -89279.36361 eV
  Last Energy change         ...    6.9258e-09  Tolerance :   1.0000e-08
  Last MAX-Density change    ...    5.3752e-07  Tolerance :   1.0000e-07
             **** THE GBW FILE WAS UPDATED (cu2.gbw) ****
             **** DENSITY cu2.scfp WAS UPDATED ****
             **** ENERGY FILE WAS UPDATED (cu2.en.tmp) ****
             **** THE GBW FILE WAS UPDATED (cu2.gbw) ****
             **** DENSITY cu2.scfp WAS UPDATED ****
Total SCF time: 0 days 0 hours 0 min 0 sec 

Maximum memory used throughout the entire SCF-calculation: 10.8 MB


-------------------------------------------------------------------------------
                          DFT DISPERSION CORRECTION                            
                                                                               
                              DFTD3 V3.1  Rev 1                                
                          USING Becke-Johnson damping                          
-------------------------------------------------------------------------------
-------------------------   ----------------
Dispersion correction           -0.002749482
-------------------------   ----------------


-------------------------   --------------------
FINAL SINGLE POINT ENERGY     -3280.959189705821
-------------------------   --------------------



           ************************************************************
           *        Program running with 8 parallel MPI-processes     *
           *              working on a common directory               *
           ************************************************************
------------------------------------------------------------------------------
                         ORCA SCF GRADIENT CALCULATION
------------------------------------------------------------------------------

Gradient of the Kohn-Sham DFT energy:
Kohn-Sham wavefunction type      ... RKS
Hartree-Fock exchange scaling    ...    0.000
Number of operators              ...    1
Number of atoms                  ...    4
Basis set dimensions             ...  102
Integral neglect threshold       ... 2.5e-11
Integral primitive cutoff        ... 2.5e-12
SHARK Integral package           ... ON

Nuc. rep. gradient       (SHARK) ... done (  0.0 sec)
HCore & Overlap gradient (SHARK) ... done (  0.0 sec)
RI-J gradient            (SHARK) ... done (  0.2 sec)
Exchange-correlation gradient    ... done
Dispersion correction            ... done

------------------
CARTESIAN GRADIENT
------------------

   1   Cu  :   -0.000285291   -0.000214368    0.004995925
   2   Cu  :   -0.007742002    0.006529352   -0.000222131
   3   H   :    0.005902985   -0.004983539   -0.003770954
   4   H   :    0.002124307   -0.001331445   -0.001002840

Difference to translation invariance:
           :   -0.0000000003    0.0000000000    0.0000000000

Difference to rotation invariance:
           :   -0.0000107511    0.0000218774   -0.0000118950

Norm of the cartesian gradient     ...    0.0144533415
RMS gradient                       ...    0.0041723203
MAX gradient                       ...    0.0077420016

-------
TIMINGS
-------

Total SCF gradient time            ...        0.462 sec

One electron gradient       ....       0.015 sec  (  3.3%)
RI-J Coulomb gradient       ....       0.207 sec  ( 44.7%)
XC gradient                 ....       0.064 sec  ( 13.9%)

Maximum memory used throughout the entire SCFGRAD-calculation: 27.6 MB
------------------------------------------------------------------------------
                         ORCA GEOMETRY RELAXATION STEP
------------------------------------------------------------------------------

Reading the OPT-File                    .... done
Getting information on internals        .... done
Copying old internal coords+grads       .... done
Making the new internal coordinates     .... (new redundants).... done
Validating the new internal coordinates .... (new redundants).... done
Calculating the B-matrix                .... done
Calculating the G,G- and P matrices     .... done
Transforming gradient to internals      .... done
Projecting the internal gradient        .... done
Number of atoms                         ....   4
Number of internal coordinates          ....  11
Current Energy                          .... -3280.959189706 Eh
Current gradient norm                   ....     0.014453342 Eh/bohr
Maximum allowed component of the step   ....  0.300
Current trust radius                    ....  0.300
Updating the Hessian (BFGS)             .... done
Forming the augmented Hessian           .... done
Diagonalizing the augmented Hessian     .... done
Last element of RFO vector              ....  0.762875529
Lowest eigenvalues of augmented Hessian:
 -0.010383016  0.013927380  0.143007784  0.152223005  0.213332237
Length of the computed step             ....  0.847510968
Warning: the length of the step is outside the trust region - taking restricted step instead
The input lambda is                     ....    -0.010383
   iter:   1  x=   -0.016590  g=  101.221747 f(x)=     0.628275
   iter:   2  x=   -0.024166  g=   34.043376 f(x)=     0.257901
   iter:   3  x=   -0.031392  g=   13.194203 f(x)=     0.095344
   iter:   4  x=   -0.035520  g=    6.623787 f(x)=     0.027347
   iter:   5  x=   -0.036394  g=    4.750562 f(x)=     0.004152
   iter:   6  x=   -0.036425  g=    4.447754 f(x)=     0.000134
   iter:   7  x=   -0.036425  g=    4.437762 f(x)=     0.000000
   iter:   8  x=   -0.036425  g=    4.437750 f(x)=     0.000000
   iter:   9  x=   -0.036425  g=    4.437750 f(x)=     0.000000
[...]
         *************************************************************
---------------------------------
CARTESIAN COORDINATES (ANGSTROEM)
---------------------------------
  Cu    -3.373275    3.041455   -0.273585
  Cu     6.762482   -5.423688    1.457130
  H     -2.139224    2.026918    0.337642
  H     -2.139813    1.870835   -0.457807

----------------------------
CARTESIAN COORDINATES (A.U.)
----------------------------
  NO LB      ZA    FRAG     MASS         X           Y           Z
   0 Cu   29.0000    0    63.550   -6.374565    5.747517   -0.517001
   1 Cu   29.0000    0    63.550   12.779239  -10.249285    2.753576
   2 H     1.0000    0     1.008   -4.042548    3.830320    0.638052
   3 H     1.0000    0     1.008   -4.043661    3.535366   -0.865131

--------------------------------
INTERNAL COORDINATES (ANGSTROEM)
--------------------------------
 Cu     0   0   0     0.000000000000     0.00000000     0.00000000
 Cu     1   0   0    13.318693173737     0.00000000     0.00000000
 H      1   2   0     1.710486660532    13.47733140     0.00000000
 H      3   1   2     0.810618699024    76.29204692   353.05330217

---------------------------
INTERNAL COORDINATES (A.U.)
---------------------------
 Cu     0   0   0     0.000000000000     0.00000000     0.00000000
 Cu     1   0   0    25.168682560089     0.00000000     0.00000000
 H      1   2   0     3.232351344131    13.47733140     0.00000000
 H      3   1   2     1.531847340191    76.29204692   353.05330217



           ************************************************************
           *        Program running with 8 parallel MPI-processes     *
           *              working on a common directory               *
           ************************************************************
------------------------------------------------------------------------------
                   ___                                                        
                  /   \      - P O W E R E D   B Y -                         
                 /     \                                                     
                 |  |  |   _    _      __       _____    __    __             
                 |  |  |  | |  | |    /  \     |  _  \  |  |  /  |          
                  \  \/   | |  | |   /    \    | | | |  |  | /  /          
                 / \  \   | |__| |  /  /\  \   | |_| |  |  |/  /          
                |  |  |   |  __  | /  /__\  \  |    /   |      \           
                |  |  |   | |  | | |   __   |  |    \   |  |\   \          
                \     /   | |  | | |  |  |  |  | |\  \  |  | \   \       
                 \___/    |_|  |_| |__|  |__|  |_| \__\ |__|  \__/        
                                                                              
                      - O R C A' S   B I G   F R I E N D -                    
                                      &                                       
                       - I N T E G R A L  F E E D E R -                       
                                                                              
 v1 FN, 2020, v2 2021                                                         
------------------------------------------------------------------------------


Reading SHARK input file cu2.SHARKINP.tmp ... ok
----------------------
SHARK INTEGRAL PACKAGE
----------------------

Number of atoms                             ...      4
Number of basis functions                   ...    102
Number of shells                            ...     38
Maximum angular momentum                    ...      3
Integral batch strategy                     ... SHARK/LIBINT Hybrid
RI-J (if used) integral strategy            ... SPLIT-RIJ (Revised 2003 algorithm where possible)
Printlevel                                  ...      1
Contraction scheme used                     ... SEGMENTED contraction
Coulomb Range Separation                    ... NOT USED
Exchange Range Separation                   ... NOT USED
Finite Nucleus Model                        ... NOT USED
Auxiliary Coulomb fitting basis             ... AVAILABLE
   # of basis functions in Aux-J            ...    204
   # of shells in Aux-J                     ...     56
   Maximum angular momentum in Aux-J        ...      4
Auxiliary J/K fitting basis                 ... NOT available
Auxiliary Correlation fitting basis         ... NOT available
Auxiliary 'external' fitting basis          ... NOT available
Integral threshold                          ...     2.500000e-11
Primitive cut-off                           ...     2.500000e-12
Primitive pair pre-selection threshold      ...     2.500000e-12

Calculating pre-screening integrals         ... done (  0.1 sec) Dimension = 38
Organizing shell pair data                  ... done (  0.0 sec)
Shell pair information
Total number of shell pairs                 ...       741
Shell pairs after pre-screening             ...       432
Total number of primitive shell pairs       ...      3694
Primitive shell pairs kept                  ...      1922
          la=0 lb=0:    114 shell pairs
          la=1 lb=0:    104 shell pairs
          la=1 lb=1:     31 shell pairs
          la=2 lb=0:     82 shell pairs
          la=2 lb=1:     40 shell pairs
          la=2 lb=2:     21 shell pairs
          la=3 lb=0:     20 shell pairs
          la=3 lb=1:     10 shell pairs
          la=3 lb=2:      8 shell pairs
          la=3 lb=3:      2 shell pairs

Calculating one electron integrals          ... done (  0.0 sec)
Calculating RI/J V-Matrix + Cholesky decomp.... done (  0.0 sec)
Calculating Nuclear repulsion               ... done (  0.0 sec) ENN=     54.642214347830 Eh

SHARK setup successfully completed in   0.1 seconds

Maximum memory used throughout the entire GTOINT-calculation: 17.2 MB


           ************************************************************
           *        Program running with 8 parallel MPI-processes     *
           *              working on a common directory               *
           ************************************************************

Diagonalization of the overlap matrix:
Smallest eigenvalue                        ... 1.638e-02
Time for diagonalization                   ...    0.002 sec
Threshold for overlap eigenvalues          ... 1.000e-08
Number of eigenvalues below threshold      ... 0
Time for construction of square roots      ...    0.001 sec
Total time needed                          ...    0.003 sec

-------------------
DFT GRID GENERATION
-------------------

General Integration Accuracy     IntAcc      ... 4.388
Radial Grid Type                 RadialGrid  ... OptM3 with GC (2021)
Angular Grid (max. ang.)         AngularGrid ... 4 (Lebedev-302)
Angular grid pruning method      GridPruning ... 4 (adaptive)
Weight generation scheme         WeightScheme... Becke
Basis function cutoff            BFCut       ... 1.0000e-11
Integration weight cutoff        WCut        ... 1.0000e-14
Angular grids for H and He will be reduced by one unit
Partially contracted basis set               ... off
Rotationally invariant grid construction     ... off

Total number of grid points                  ...    29289
Total number of batches                      ...      459
Average number of points per batch           ...       63
Average number of grid points per atom       ...     7322
Time for grid setup =    0.267 sec

--------------
SCF ITERATIONS
--------------
ITER       Energy         Delta-E        Max-DP      RMS-DP      [F,P]     Damp
               ***  Starting incremental Fock matrix formation  ***
  0  -3281.0502024393   0.000000000000 0.00010134  0.00000274  0.0003784 0.7000
  1  -3281.0502026691  -0.000000229832 0.00012377  0.00000304  0.0002892 0.7000
                               ***Turning on DIIS***
  2  -3281.0502028492  -0.000000180115 0.00062932  0.00001158  0.0002104 0.0000
  3  -3281.0502032959  -0.000000446722 0.00005311  0.00000159  0.0000269 0.0000
  4  -3281.0502032981  -0.000000002187 0.00001805  0.00000065  0.0000293 0.0000
  5  -3281.0502032962   0.000000001934 0.00000945  0.00000033  0.0000443 0.0000
                            ***DIIS convergence achieved***

               *****************************************************
               *                     SUCCESS                       *
               *           SCF CONVERGED AFTER   6 CYCLES          *
               *****************************************************

Total Energy       :        -3281.05020330 Eh          -89281.91504 eV
  Last Energy change         ...   -1.1619e-09  Tolerance :   1.0000e-08
  Last MAX-Density change    ...    1.1847e-06  Tolerance :   1.0000e-07
             **** THE GBW FILE WAS UPDATED (cu2.gbw) ****
             **** DENSITY cu2.scfp WAS UPDATED ****
             **** ENERGY FILE WAS UPDATED (cu2.en.tmp) ****
             **** THE GBW FILE WAS UPDATED (cu2.gbw) ****
             **** DENSITY cu2.scfp WAS UPDATED ****
Total SCF time: 0 days 0 hours 0 min 0 sec 

Maximum memory used throughout the entire SCF-calculation: 10.7 MB


-------------------------------------------------------------------------------
                          DFT DISPERSION CORRECTION                            
                                                                               
                              DFTD3 V3.1  Rev 1                                
                          USING Becke-Johnson damping                          
-------------------------------------------------------------------------------
-------------------------   ----------------
Dispersion correction           -0.000743205
-------------------------   ----------------


-------------------------   --------------------
FINAL SINGLE POINT ENERGY     -3281.050946502246
-------------------------   --------------------



           ************************************************************
           *        Program running with 8 parallel MPI-processes     *
           *              working on a common directory               *
           ************************************************************
------------------------------------------------------------------------------
                         ORCA SCF GRADIENT CALCULATION
------------------------------------------------------------------------------

Gradient of the Kohn-Sham DFT energy:
Kohn-Sham wavefunction type      ... RKS
Hartree-Fock exchange scaling    ...    0.000
Number of operators              ...    1
Number of atoms                  ...    4
Basis set dimensions             ...  102
Integral neglect threshold       ... 2.5e-11
Integral primitive cutoff        ... 2.5e-12
SHARK Integral package           ... ON

Nuc. rep. gradient       (SHARK) ... done (  0.0 sec)
HCore & Overlap gradient (SHARK) ... done (  0.0 sec)
RI-J gradient            (SHARK) ... done (  0.2 sec)
Exchange-correlation gradient    ... done
Dispersion correction            ... done

------------------
CARTESIAN GRADIENT
------------------

   1   Cu  :    0.000015294    0.000037734   -0.000002136
   2   Cu  :   -0.001252260    0.001043850   -0.000213698
   3   H   :    0.000621798   -0.000542026    0.000111253
   4   H   :    0.000615169   -0.000539558    0.000104581

Difference to translation invariance:
           :    0.0000000000    0.0000000002    0.0000000002

Difference to rotation invariance:
           :   -0.0000019125   -0.0000016397   -0.0000071798

Norm of the cartesian gradient     ...    0.0020195057
RMS gradient                       ...    0.0005829811
MAX gradient                       ...    0.0012522603

-------
TIMINGS
-------

Total SCF gradient time            ...        0.346 sec

One electron gradient       ....       0.009 sec  (  2.7%)
RI-J Coulomb gradient       ....       0.163 sec  ( 47.2%)
XC gradient                 ....       0.047 sec  ( 13.5%)

Maximum memory used throughout the entire SCFGRAD-calculation: 27.3 MB
------------------------------------------------------------------------------
                         ORCA GEOMETRY RELAXATION STEP
------------------------------------------------------------------------------

Reading the OPT-File                    .... done
Getting information on internals        .... done
Copying old internal coords+grads       .... done
Making the new internal coordinates     .... (new redundants).... done
Validating the new internal coordinates .... (new redundants).... done
Calculating the B-matrix                .... done
Calculating the G,G- and P matrices     .... done
Transforming gradient to internals      .... done
Projecting the internal gradient        .... done
Number of atoms                         ....   4
Number of internal coordinates          ....  14
Current Energy                          .... -3281.050946502 Eh
Current gradient norm                   ....     0.002019506 Eh/bohr
Maximum allowed component of the step   ....  0.300
Current trust radius                    ....  0.300
Updating the Hessian (BFGS)             .... done
Forming the augmented Hessian           .... done
Diagonalizing the augmented Hessian     .... done
Last element of RFO vector              ....  0.717454190
Lowest eigenvalues of augmented Hessian:
 -0.001130927  0.001199620  0.020051820  0.044892865  0.083156616
Length of the computed step             ....  0.970940999
Warning: the length of the step is outside the trust region - taking restricted step instead
The input lambda is                     ....    -0.001131
   iter:   1  x=   -0.001673  g= 1571.701055 f(x)=     0.852726
   iter:   2  x=   -0.002369  g=  513.134924 f(x)=     0.356986
   iter:   3  x=   -0.003108  g=  187.273049 f(x)=     0.138274
   iter:   4  x=   -0.003633  g=   84.678597 f(x)=     0.044479
   iter:   5  x=   -0.003801  g=   53.502688 f(x)=     0.009020
   iter:   6  x=   -0.003814  g=   46.810720 f(x)=     0.000581
   iter:   7  x=   -0.003814  g=   46.363332 f(x)=     0.000003
   iter:   8  x=   -0.003814  g=   46.361182 f(x)=     0.000000
   iter:   9  x=   -0.003814  g=   46.361182 f(x)=     0.000000
The output lambda is                    ....    -0.003814 (9 iterations)
The final length of the internal step   ....  0.300000000
Converting the step to cartesian space:
 Initial RMS(Int)=    0.0801783726
Transforming coordinates:
 Iter   0:  RMS(Cart)=    0.0501224100 RMS(Int)=    0.0756113525
 Iter   1:  RMS(Cart)=    0.0030222979 RMS(Int)=    0.0045685595
 Iter   2:  RMS(Cart)=    0.0000001723 RMS(Int)=    0.0000001265
 Iter   3:  RMS(Cart)=    0.0000000006 RMS(Int)=    0.0000000006
done
Storing new coordinates                 .... done

                                .--------------------.
          ----------------------|Geometry convergence|-------------------------
          Item                value                   Tolerance       Converged
          ---------------------------------------------------------------------
          Energy change      -0.0003525020            0.0000050000      NO
          RMS gradient        0.0003118137            0.0001000000      NO
          MAX gradient        0.0008244091            0.0003000000      NO
          RMS step            0.0801783726            0.0020000000      NO
          MAX step            0.2124908822            0.0040000000      NO
          ........................................................
          Max(Bonds)      0.1124      Max(Angles)    0.08
          Max(Dihed)        0.24      Max(Improp)    0.00
          ---------------------------------------------------------------------

The optimization has not yet converged - more geometry cycles are needed


    ---------------------------------------------------------------------------
                         Redundant Internal Coordinates
                            (Angstroem and degrees)

        Definition                    Value    dE/dq     Step     New-Value
    ----------------------------------------------------------------------------
     1. B(H   2,Cu  0)                1.7105  0.000008 -0.0002    1.7103   
     2. B(H   2,Cu  1)               11.6621 -0.000824  0.1124   11.7746   
     3. B(H   3,H   2)                0.8106  0.000024  0.0000    0.8106   
     4. B(H   3,Cu  1)               11.6674 -0.000821  0.1120   11.7794   
     5. B(H   3,Cu  0)                1.7105  0.000009 -0.0002    1.7103   
     6. A(H   2,Cu  0,H   3)           27.41  0.000006    0.00     27.42   
     7. A(H   2,Cu  1,H   3)            3.98  0.000004   -0.04      3.94   
     8. A(Cu  1,H   2,H   3)           88.38  0.000000   -0.01     88.37   
     9. A(Cu  0,H   2,H   3)           76.29 -0.000002   -0.00     76.29   
    10. A(Cu  1,H   3,H   2)           87.64 -0.000004    0.05     87.69   
    11. A(Cu  0,H   3,H   2)           76.29 -0.000004   -0.00     76.29   
    12. A(Cu  0,H   3,Cu  1)          163.83 -0.000015    0.08    163.90   
    13. D(Cu  1,H   3,H   2,Cu  0)    178.15 -0.000059    0.24    178.39   
    14. D(Cu  0,H   3,H   2,Cu  1)   -178.15  0.000059   -0.24   -178.39   
    ----------------------------------------------------------------------------




    ----------------------------------------------------------------------------
                                  WARNING !!!
       The optimization did not converge but reached the maximum number of
       optimization cycles.
       Please check your results very carefully.
    ----------------------------------------------------------------------------



                            ***************************************
                            *     ORCA property calculations      *
                            ***************************************

                                    ---------------------
                                    Active property flags
                                    ---------------------
   (+) Dipole Moment


------------------------------------------------------------------------------
                       ORCA ELECTRIC PROPERTIES CALCULATION
------------------------------------------------------------------------------

Dipole Moment Calculation                       ... on
Quadrupole Moment Calculation                   ... off
Polarizability Calculation                      ... off
GBWName                                         ... cu2.gbw
Electron density                                ... cu2.scfp
The origin for moment calculation is the CENTER OF MASS  = ( 3.125610, -2.194145  1.105817)

-------------
DIPOLE MOMENT
-------------
                                X             Y             Z
Electronic contribution:     10.29268      -8.80002       1.78390
Nuclear contribution   :     -7.78302       6.38736      -1.32448
                        -----------------------------------------
Total Dipole Moment    :      2.50966      -2.41266       0.45942
                        -----------------------------------------
Magnitude (a.u.)       :      3.51146
Magnitude (Debye)      :      8.92542



--------------------
Rotational spectrum 
--------------------
 
Rotational constants in cm-1:    50.380083     0.002915     0.002915 
Rotational constants in MHz : 1510356.904207    87.395853    87.390896 

 Dipole components along the rotational axes: 
x,y,z [a.u.] :    -3.502950    -0.032537     0.242158 
x,y,z [Debye]:    -8.903790    -0.082701     0.615516 

 

Timings for individual modules:

Sum of individual times         ...      219.211 sec (=   3.654 min)
GTO integral calculation        ...       53.140 sec (=   0.886 min)  24.2 %
SCF iterations                  ...       95.869 sec (=   1.598 min)  43.7 %
SCF Gradient evaluation         ...       69.464 sec (=   1.158 min)  31.7 %
Geometry relaxation             ...        0.738 sec (=   0.012 min)   0.3 %
                             ****ORCA TERMINATED NORMALLY****
TOTAL RUN TIME: 0 days 0 hours 4 minutes 23 seconds 297 msec
