
                                 *****************
                                 * O   R   C   A *
                                 *****************

                                            #,                                       
                                            ###                                      
                                            ####                                     
                                            #####                                    
                                            ######                                   
                                           ########,                                 
                                     ,,################,,,,,                         
                               ,,#################################,,                 
                          ,,##########################################,,             
                       ,#########################################, ''#####,          
                    ,#############################################,,   '####,        
                  ,##################################################,,,,####,       
                ,###########''''           ''''###############################       
              ,#####''   ,,,,##########,,,,          '''####'''          '####       
            ,##' ,,,,###########################,,,                        '##       
           ' ,,###''''                  '''############,,,                           
         ,,##''                                '''############,,,,        ,,,,,,###''
      ,#''                                            '''#######################'''  
     '                                                          ''''####''''         
             ,#######,   #######,   ,#######,      ##                                
            ,#'     '#,  ##    ##  ,#'     '#,    #''#        ######   ,####,        
            ##       ##  ##   ,#'  ##            #'  '#       #        #'  '#        
            ##       ##  #######   ##           ,######,      #####,   #    #        
            '#,     ,#'  ##    ##  '#,     ,#' ,#      #,         ##   #,  ,#        
             '#######'   ##     ##  '#######'  #'      '#     #####' # '####'        



                  #######################################################
                  #                        -***-                        #
                  #          Department of theory and spectroscopy      #
                  #    Directorship and core code : Frank Neese         #
                  #        Max Planck Institute fuer Kohlenforschung    #
                  #                Kaiser Wilhelm Platz 1               #
                  #                 D-45470 Muelheim/Ruhr               #
                  #                      Germany                        #
                  #                                                     #
                  #                  All rights reserved                #
                  #                        -***-                        #
                  #######################################################


                         Program Version 5.0.1 -  RELEASE  -


 With contributions from (in alphabetic order):
   Daniel Aravena         : Magnetic Suceptibility
   Michael Atanasov       : Ab Initio Ligand Field Theory (pilot matlab implementation)
   Alexander A. Auer      : GIAO ZORA, VPT2 properties, NMR spectrum
   Ute Becker             : Parallelization
   Giovanni Bistoni       : ED, misc. LED, open-shell LED, HFLD
   Martin Brehm           : Molecular dynamics
   Dmytro Bykov           : SCF Hessian
   Vijay G. Chilkuri      : MRCI spin determinant printing, contributions to CSF-ICE
   Dipayan Datta          : RHF DLPNO-CCSD density
   Achintya Kumar Dutta   : EOM-CC, STEOM-CC
   Dmitry Ganyushin       : Spin-Orbit,Spin-Spin,Magnetic field MRCI
   Miquel Garcia          : C-PCM and meta-GGA Hessian, CC/C-PCM, Gaussian charge scheme
   Yang Guo               : DLPNO-NEVPT2, F12-NEVPT2, CIM, IAO-localization
   Andreas Hansen         : Spin unrestricted coupled pair/coupled cluster methods
   Benjamin Helmich-Paris : MC-RPA, TRAH-SCF, COSX integrals
   Lee Huntington         : MR-EOM, pCC
   Robert Izsak           : Overlap fitted RIJCOSX, COSX-SCS-MP3, EOM
   Marcus Kettner         : VPT2
   Christian Kollmar      : KDIIS, OOCD, Brueckner-CCSD(T), CCSD density, CASPT2, CASPT2-K
   Simone Kossmann        : Meta GGA functionals, TD-DFT gradient, OOMP2, MP2 Hessian
   Martin Krupicka        : Initial AUTO-CI
   Lucas Lang             : DCDCAS
   Marvin Lechner         : AUTO-CI (C++ implementation), FIC-MRCC
   Dagmar Lenk            : GEPOL surface, SMD
   Dimitrios Liakos       : Extrapolation schemes; Compound Job, initial MDCI parallelization
   Dimitrios Manganas     : Further ROCIS development; embedding schemes
   Dimitrios Pantazis     : SARC Basis sets
   Anastasios Papadopoulos: AUTO-CI, single reference methods and gradients
   Taras Petrenko         : DFT Hessian,TD-DFT gradient, ASA, ECA, R-Raman, ABS, FL, XAS/XES, NRVS
   Peter Pinski           : DLPNO-MP2, DLPNO-MP2 Gradient
   Christoph Reimann      : Effective Core Potentials
   Marius Retegan         : Local ZFS, SOC
   Christoph Riplinger    : Optimizer, TS searches, QM/MM, DLPNO-CCSD(T), (RO)-DLPNO pert. Triples
   Tobias Risthaus        : Range-separated hybrids, TD-DFT gradient, RPA, STAB
   Michael Roemelt        : Original ROCIS implementation
   Masaaki Saitow         : Open-shell DLPNO-CCSD energy and density
   Barbara Sandhoefer     : DKH picture change effects
   Avijit Sen             : IP-ROCIS
   Kantharuban Sivalingam : CASSCF convergence, NEVPT2, FIC-MRCI
   Bernardo de Souza      : ESD, SOC TD-DFT
   Georgi Stoychev        : AutoAux, RI-MP2 NMR, DLPNO-MP2 response
   Willem Van den Heuvel  : Paramagnetic NMR
   Boris Wezisla          : Elementary symmetry handling
   Frank Wennmohs         : Technical directorship


 We gratefully acknowledge several colleagues who have allowed us to
 interface, adapt or use parts of their codes:
   Stefan Grimme, W. Hujo, H. Kruse, P. Pracht,  : VdW corrections, initial TS optimization,
                  C. Bannwarth, S. Ehlert          DFT functionals, gCP, sTDA/sTD-DF
   Ed Valeev, F. Pavosevic, A. Kumar             : LibInt (2-el integral package), F12 methods
   Garnet Chan, S. Sharma, J. Yang, R. Olivares  : DMRG
   Ulf Ekstrom                                   : XCFun DFT Library
   Mihaly Kallay                                 : mrcc  (arbitrary order and MRCC methods)
   Jiri Pittner, Ondrej Demel                    : Mk-CCSD
   Frank Weinhold                                : gennbo (NPA and NBO analysis)
   Christopher J. Cramer and Donald G. Truhlar   : smd solvation model
   Lars Goerigk                                  : TD-DFT with DH, B97 family of functionals
   V. Asgeirsson, H. Jonsson                     : NEB implementation
   FAccTs GmbH                                   : IRC, NEB, NEB-TS, DLPNO-Multilevel, CI-OPT
                                                   MM, QMMM, 2- and 3-layer-ONIOM, Crystal-QMMM,
                                                   LR-CPCM, SF, NACMEs, symmetry and pop. for TD-DFT,
                                                   nearIR, NL-DFT gradient (VV10), updates on ESD,
                                                   ML-optimized integration grids
   S Lehtola, MJT Oliveira, MAL Marques          : LibXC Library
   Liviu Ungur et al                             : ANISO software


 Your calculation uses the libint2 library for the computation of 2-el integrals
 For citations please refer to: http://libint.valeyev.net

 Your ORCA version has been built with support for libXC version: 5.1.0
 For citations please refer to: https://tddft.org/programs/libxc/

 This ORCA versions uses:
   CBLAS   interface :  Fast vector & matrix operations
   LAPACKE interface :  Fast linear algebra routines
   SCALAPACK package :  Parallel linear algebra routines
   Shared memory     :  Shared parallel matrices
   BLAS/LAPACK       :  OpenBLAS 0.3.15  USE64BITINT DYNAMIC_ARCH NO_AFFINITY Haswell SINGLE_THREADED
        Core in use  :  Haswell
   Copyright (c) 2011-2014, The OpenBLAS Project




***************************************
The coordinates will be read from file: cu+cu.xyz
***************************************


Your calculation utilizes the atom-pairwise dispersion correction
with the Becke-Johnson damping scheme (D3BJ)
Cite in your paper:
S.Grimme, S.Ehrlich, L.Goerigk, J Comput Chem, (2011), 32, 1456–1465 
S.Grimme, J.Antony, S.Ehrlich and H.Krieg, J.Chem.Phys., 132, (2010), 154104 
   

================================================================================

----- Orbital basis set information -----
Your calculation utilizes the basis: def2-TZVP
   F. Weigend and R. Ahlrichs, Phys. Chem. Chem. Phys. 7, 3297 (2005).

----- AuxJ basis set information -----
Your calculation utilizes the auxiliary basis: def2/J
   F. Weigend, Phys. Chem. Chem. Phys. 8, 1057 (2006).

================================================================================
                                        WARNINGS
                       Please study these warnings very carefully!
================================================================================


WARNING: Geometry Optimization
  ===> : Switching off AutoStart
         For restart on a previous wavefunction, please use MOREAD

INFO   : the flag for use of the SHARK integral package has been found!

================================================================================
                                       INPUT FILE
================================================================================
NAME = ex.inp
|  1> ! PBE D3 def2-TZVP opt 
|  2> 
|  3> %base "cu2"
|  4> %pal nprocs=8 end
|  5> %geom maxiter=75 end
|  6> *xyzfile 2 1 cu+cu.xyz
|  7> 
|  8>                          ****END OF INPUT****
================================================================================

                       *****************************
                       * Geometry Optimization Run *
                       *****************************

Geometry optimization settings:
Update method            Update   .... BFGS
Choice of coordinates    CoordSys .... Z-matrix Internals
Initial Hessian          InHess   .... Almoef's Model

Convergence Tolerances:
Energy Change            TolE     ....  5.0000e-06 Eh
Max. Gradient            TolMAXG  ....  3.0000e-04 Eh/bohr
RMS Gradient             TolRMSG  ....  1.0000e-04 Eh/bohr
Max. Displacement        TolMAXD  ....  4.0000e-03 bohr
RMS Displacement         TolRMSD  ....  2.0000e-03 bohr
Strict Convergence                ....  False
------------------------------------------------------------------------------
                        ORCA OPTIMIZATION COORDINATE SETUP
------------------------------------------------------------------------------

The optimization will be done in new redundant internal coordinates
Making redundant internal coordinates   ...  (new redundants) done
Evaluating the initial hessian          ...  (Almloef) done
Evaluating the coordinates              ...  done
Calculating the B-matrix                .... done
Calculating the G-matrix                .... done
Diagonalizing the G-matrix              .... done
The first mode is                       ....    0
The number of degrees of freedom        ....    1

    -----------------------------------------------------------------
                    Redundant Internal Coordinates


    -----------------------------------------------------------------
         Definition                    Initial Value    Approx d2E/dq
    -----------------------------------------------------------------
      1. B(Cu  1,Cu  0)                  0.1000        7313.088913   
    -----------------------------------------------------------------

Number of atoms                         .... 2
Number of degrees of freedom            .... 1

         *************************************************************
         *                GEOMETRY OPTIMIZATION CYCLE   1            *
         *************************************************************
---------------------------------
CARTESIAN COORDINATES (ANGSTROEM)
---------------------------------
  Cu     0.000000    0.000000    0.000000
  Cu     0.000000    0.000000    0.100000

----------------------------
CARTESIAN COORDINATES (A.U.)
----------------------------
  NO LB      ZA    FRAG     MASS         X           Y           Z
   0 Cu   29.0000    0    63.550    0.000000    0.000000    0.000000
   1 Cu   29.0000    0    63.550    0.000000    0.000000    0.188973

--------------------------------
INTERNAL COORDINATES (ANGSTROEM)
--------------------------------
 Cu     0   0   0     0.000000000000     0.00000000     0.00000000
 Cu     1   0   0     0.100000000000     0.00000000     0.00000000

---------------------------
INTERNAL COORDINATES (A.U.)
---------------------------
 Cu     0   0   0     0.000000000000     0.00000000     0.00000000
 Cu     1   0   0     0.188972613392     0.00000000     0.00000000

---------------------
BASIS SET INFORMATION
---------------------
There are 1 groups of distinct atoms

 Group   1 Type Cu  : 17s11p7d1f contracted to 6s4p4d1f pattern {842111/6311/4111/1}

Atom   0Cu   basis set group =>   1
Atom   1Cu   basis set group =>   1
---------------------------------
AUXILIARY/J BASIS SET INFORMATION
---------------------------------
There are 1 groups of distinct atoms

 Group   1 Type Cu  : 19s5p5d3f3g contracted to 8s5p4d3f3g pattern {121111111/11111/2111/111/111}

Atom   0Cu   basis set group =>   1
Atom   1Cu   basis set group =>   1


           ************************************************************
           *        Program running with 8 parallel MPI-processes     *
           *              working on a common directory               *
           ************************************************************
------------------------------------------------------------------------------
                           ORCA GTO INTEGRAL CALCULATION
                           -- RI-GTO INTEGRALS CHOSEN --
------------------------------------------------------------------------------
------------------------------------------------------------------------------
                   ___                                                        
                  /   \      - P O W E R E D   B Y -                         
                 /     \                                                     
                 |  |  |   _    _      __       _____    __    __             
                 |  |  |  | |  | |    /  \     |  _  \  |  |  /  |          
                  \  \/   | |  | |   /    \    | | | |  |  | /  /          
                 / \  \   | |__| |  /  /\  \   | |_| |  |  |/  /          
                |  |  |   |  __  | /  /__\  \  |    /   |      \           
                |  |  |   | |  | | |   __   |  |    \   |  |\   \          
                \     /   | |  | | |  |  |  |  | |\  \  |  | \   \       
                 \___/    |_|  |_| |__|  |__|  |_| \__\ |__|  \__/        
                                                                              
                      - O R C A' S   B I G   F R I E N D -                    
                                      &                                       
                       - I N T E G R A L  F E E D E R -                       
                                                                              
 v1 FN, 2020, v2 2021                                                         
------------------------------------------------------------------------------


Reading SHARK input file cu2.SHARKINP.tmp ... ok
----------------------
SHARK INTEGRAL PACKAGE
----------------------

Number of atoms                             ...      2
Number of basis functions                   ...     90
Number of shells                            ...     30
Maximum angular momentum                    ...      3
Integral batch strategy                     ... SHARK/LIBINT Hybrid
RI-J (if used) integral strategy            ... SPLIT-RIJ (Revised 2003 algorithm where possible)
Printlevel                                  ...      1
Contraction scheme used                     ... SEGMENTED contraction
Coulomb Range Separation                    ... NOT USED
Exchange Range Separation                   ... NOT USED
Finite Nucleus Model                        ... NOT USED
Auxiliary Coulomb fitting basis             ... AVAILABLE
   # of basis functions in Aux-J            ...    182
   # of shells in Aux-J                     ...     46
   Maximum angular momentum in Aux-J        ...      4
Auxiliary J/K fitting basis                 ... NOT available
Auxiliary Correlation fitting basis         ... NOT available
Auxiliary 'external' fitting basis          ... NOT available
Integral threshold                          ...     2.500000e-11
Primitive cut-off                           ...     2.500000e-12
Primitive pair pre-selection threshold      ...     2.500000e-12

Calculating pre-screening integrals         ... done (  0.0 sec) Dimension = 30
Organizing shell pair data                  ... done (  0.0 sec)
Shell pair information
Total number of shell pairs                 ...       465
Shell pairs after pre-screening             ...       465
Total number of primitive shell pairs       ...      2746
Primitive shell pairs kept                  ...      2716
          la=0 lb=0:     78 shell pairs
          la=1 lb=0:     96 shell pairs
          la=1 lb=1:     36 shell pairs
          la=2 lb=0:     96 shell pairs
          la=2 lb=1:     64 shell pairs
          la=2 lb=2:     36 shell pairs
          la=3 lb=0:     24 shell pairs
          la=3 lb=1:     16 shell pairs
          la=3 lb=2:     16 shell pairs
          la=3 lb=3:      3 shell pairs

Calculating one electron integrals          ... done (  0.0 sec)
Calculating RI/J V-Matrix + Cholesky decomp.... done (  0.0 sec)
Calculating Nuclear repulsion               ... done (  0.0 sec) ENN=   4450.380321803001 Eh

SHARK setup successfully completed in   0.1 seconds

Maximum memory used throughout the entire GTOINT-calculation: 17.2 MB


           ************************************************************
           *        Program running with 8 parallel MPI-processes     *
           *              working on a common directory               *
           ************************************************************
-------------------------------------------------------------------------------
                                 ORCA SCF
-------------------------------------------------------------------------------

------------
SCF SETTINGS
------------
Hamiltonian:
 Density Functional     Method          .... DFT(GTOs)
 Exchange Functional    Exchange        .... PBE
   PBE kappa parameter   XKappa         ....  0.804000
   PBE mue parameter    XMuePBE         ....  0.219520
 Correlation Functional Correlation     .... PBE
   PBE beta parameter  CBetaPBE         ....  0.066725
 LDA part of GGA corr.  LDAOpt          .... PW91-LDA
 Gradients option       PostSCFGGA      .... off
   Density functional embedding theory  .... OFF
   NL short-range parameter             ....  6.400000
 RI-approximation to the Coulomb term is turned on
   Number of AuxJ basis functions       .... 182


General Settings:
 Integral files         IntName         .... cu2
 Hartree-Fock type      HFTyp           .... RHF
 Total Charge           Charge          ....    2
 Multiplicity           Mult            ....    1
 Number of Electrons    NEL             ....   56
 Basis Dimension        Dim             ....   90
 Nuclear Repulsion      ENuc            ....   4450.3803218030 Eh

Convergence Acceleration:
 DIIS                   CNVDIIS         .... on
   Start iteration      DIISMaxIt       ....    12
   Startup error        DIISStart       ....  0.200000
   # of expansion vecs  DIISMaxEq       ....     5
   Bias factor          DIISBfac        ....   1.050
   Max. coefficient     DIISMaxC        ....  10.000
 Trust-Rad. Augm. Hess. CNVTRAH         .... auto
   Auto Start mean grad. ratio tolernc. ....  1.125000
   Auto Start start iteration           ....    20
   Auto Start num. interpolation iter.  ....    10
   Max. Number of Micro iterations      ....    16
   Max. Number of Macro iterations      .... Maxiter - #DIIS iter
   Number of Davidson start vectors     ....     2
   Converg. threshold I  (grad. norm)   ....   1.000e-05
   Converg. threshold II (energy diff.) ....   1.000e-08
   Grad. Scal. Fac. for Micro threshold ....   0.100
   Minimum threshold for Micro iter.    ....   0.010
   NR start threshold (gradient norm)   ....   0.001
   Initial trust radius                 ....   0.400
   Minimum AH scaling param. (alpha)    ....   1.000
   Maximum AH scaling param. (alpha)    .... 1000.000
   Orbital update algorithm             .... Taylor
   White noise on init. David. guess    .... on
   Maximum white noise                  ....   0.010
   Quad. conv. algorithm                .... NR
 SOSCF                  CNVSOSCF        .... off
 Level Shifting         CNVShift        .... on
   Level shift para.    LevelShift      ....    0.2500
   Turn off err/grad.   ShiftErr        ....    0.0010
 Zerner damping         CNVZerner       .... off
 Static damping         CNVDamp         .... on
   Fraction old density DampFac         ....    0.7000
   Max. Damping (<1)    DampMax         ....    0.9800
   Min. Damping (>=0)   DampMin         ....    0.0000
   Turn off err/grad.   DampErr         ....    0.1000
 Fernandez-Rico         CNVRico         .... off

SCF Procedure:
 Maximum # iterations   MaxIter         ....   125
 SCF integral mode      SCFMode         .... Direct
   Integral package                     .... SHARK and LIBINT hybrid scheme
 Reset frequency        DirectResetFreq ....    20
 Integral Threshold     Thresh          ....  2.500e-11 Eh
 Primitive CutOff       TCut            ....  2.500e-12 Eh

Convergence Tolerance:
 Convergence Check Mode ConvCheckMode   .... Total+1el-Energy
 Convergence forced     ConvForced      .... 0
 Energy Change          TolE            ....  1.000e-08 Eh
 1-El. energy change                    ....  1.000e-05 Eh
 DIIS Error             TolErr          ....  5.000e-07


Diagonalization of the overlap matrix:
Smallest eigenvalue                        ... 2.009e-05
Time for diagonalization                   ...    0.005 sec
Threshold for overlap eigenvalues          ... 1.000e-08
Number of eigenvalues below threshold      ... 0
Time for construction of square roots      ...    0.002 sec
Total time needed                          ...    0.008 sec

Time for model grid setup =    0.090 sec

------------------------------
INITIAL GUESS: MODEL POTENTIAL
------------------------------
Loading Hartree-Fock densities                     ... done
Calculating cut-offs                               ... done
Initializing the effective Hamiltonian             ... done
Setting up the integral package (SHARK)            ... done
Starting the Coulomb interaction                   ... done (   0.0 sec)
Reading the grid                                   ... done
Mapping shells                                     ... done
Starting the XC term evaluation                    ... done (   0.0 sec)
  promolecular density results
     # of electrons  =     57.996681041
     EX              =   -149.496895489
     EC              =     -3.214259054
     EX+EC           =   -152.711154544
Transforming the Hamiltonian                       ... done (   0.0 sec)
Diagonalizing the Hamiltonian                      ... done (   0.0 sec)
Back transforming the eigenvectors                 ... done (   0.0 sec)
Now organizing SCF variables                       ... done
                      ------------------
                      INITIAL GUESS DONE (   0.1 sec)
                      ------------------
-------------------
DFT GRID GENERATION
-------------------

General Integration Accuracy     IntAcc      ... 4.388
Radial Grid Type                 RadialGrid  ... OptM3 with GC (2021)
Angular Grid (max. ang.)         AngularGrid ... 4 (Lebedev-302)
Angular grid pruning method      GridPruning ... 4 (adaptive)
Weight generation scheme         WeightScheme... Becke
Basis function cutoff            BFCut       ... 1.0000e-11
Integration weight cutoff        WCut        ... 1.0000e-14
Angular grids for H and He will be reduced by one unit
Partially contracted basis set               ... off
Rotationally invariant grid construction     ... off

Total number of grid points                  ...    22448
Total number of batches                      ...      352
Average number of points per batch           ...       63
Average number of grid points per atom       ...    11224
Time for grid setup =    0.155 sec

--------------
SCF ITERATIONS
--------------
ITER       Energy         Delta-E        Max-DP      RMS-DP      [F,P]     Damp
               ***  Starting incremental Fock matrix formation  ***
  0  -1160.3367645183   0.00000000000077.26028976  2.10274363  0.9398191 0.7000
  1  -1161.2188791879  -0.88211466962530.23205164  0.82721159  0.2732127 0.7000
                               ***Turning on DIIS***
  2  -1161.7747062736  -0.55582708563121.14299569  0.55380872  0.1849441 0.7000
  3  -1162.1368689622  -0.36216268868916.55230238  0.42518881  0.1397580 0.7000
  4  -1162.3803223353  -0.24345337305337.19702715  0.96455679  0.0943836 0.0000
  5  -1162.9293383555  -0.549016020193 0.69362740  0.01471746  0.0053574 0.0000
  6  -1162.9293798247  -0.000041469189 0.23105643  0.00811811  0.0012673 0.0000
  7  -1162.9293802334  -0.000000408759 0.11357922  0.00361209  0.0010638 0.0000
  8  -1162.9293837690  -0.000003535522 0.35840732  0.01450684  0.0000373 0.0000
  9  -1162.9287753626   0.000608406344 0.00045721  0.00001607  0.0390531 0.0000
 10  -1162.9287751036   0.000000259040 0.00014247  0.00000389  0.0390591 0.0000
 11  -1162.9287749873   0.000000116270 0.00026756  0.00000704  0.0390617 0.0000
 12  -1162.9287750982  -0.000000110860 0.00456370  0.00013000  0.0390589 0.0000
 13  -1162.9287746192   0.000000478979 0.32931461  0.00787716  0.0390592 0.0000
 14  -1162.9293639669  -0.000589347746 0.43149054  0.01166259  0.0017011 0.0000
 15  -1162.9293726724  -0.000008705491 0.19549849  0.00571012  0.0014771 0.0000
 16  -1162.9293797739  -0.000007101484 0.35910572  0.01456466  0.0002903 0.0000
 17  -1162.9287798133   0.000599960649 0.00226971  0.00006729  0.0390529 0.0000
 18  -1162.9287738866   0.000005926645 0.00336248  0.00009463  0.0392477 0.0000
 19  -1162.9287794279  -0.000005541257 0.00035865  0.00001038  0.0390601 0.0000
               *** Restarting incremental Fock matrix formation ***
                                   *** Resetting DIIS ***

 WARNING: the maximum gradient error descreased on average only by a factor   1.0
          during the last 20 iterations

                      *** Initiating the TRAH-SCF procedure ***


TRAH GRID
---------

General Integration Accuracy     IntAcc      ... 3.467
Radial Grid Type                 RadialGrid  ... OptM3 with GC (2021)
Angular Grid (max. ang.)         AngularGrid ... 1 (Lebedev-50)
Angular grid pruning method      GridPruning ... 4 (adaptive)
Weight generation scheme         WeightScheme... Becke
Basis function cutoff            BFCut       ... 1.0000e-11
Integration weight cutoff        WCut        ... 1.0000e-14
Angular grids for H and He will be reduced by one unit
Partially contracted basis set               ... off
Rotationally invariant grid construction     ... off

Total number of grid points                  ...     8640
Total number of batches                      ...      136
Average number of points per batch           ...       63
Average number of grid points per atom       ...     4320

 --------------------------------------------------------------------------------------------
   Iter.        energy            ||Error||_2        Shift      TRadius  Mac/Mic        Rej.
 --------------------------------------------------------------------------------------------
WARNING: 1 diagonal Hessian elements are negative!
    0      -1162.928780223363     1.625002e-01                     0.400 (TRAH MAcro)   No
WARNING : negative HOMO - LUMO gap : -0.017941
    0     dE    -3.077014e-04     1.165236e-01    -6.1539e-04      0.004 (TRAH MIcro)
    0     dE    -5.947718e-04     1.723532e-02    -1.1894e-03      0.011 (TRAH MIcro)
    0     dE    -6.038029e-04     6.215289e-03    -1.2074e-03      0.012 (TRAH MIcro)
WARNING: 1 diagonal Hessian elements are negative!
    1      -1162.929383329183     6.238801e-03                     0.480 (TRAH MAcro)   No
WARNING : negative HOMO - LUMO gap : -0.017276
    1     dE    -1.840791e-07     8.697624e-03    -3.6820e-07      0.000 (TRAH MIcro)
    1     dE    -4.518481e-07     4.212880e-04    -9.0370e-07      0.000 (TRAH MIcro)
WARNING: 1 diagonal Hessian elements are negative!
    2      -1162.929383781014     4.213279e-04                           (NR   MAcro)
WARNING : negative HOMO - LUMO gap : -0.017279
    2     dE    -2.297553e-09     1.771746e-04                           (NR   MIcro)
    2     dE    -2.619433e-09     1.858136e-05                           (NR   MIcro)
    2     dE    -2.622819e-09     2.304699e-06                           (NR   MIcro)
    2     dE    -2.622838e-09     3.598877e-07                           (NR   MIcro)
WARNING: 1 diagonal Hessian elements are negative!
    3      -1162.929383783661     6.016456e-07                           (NR   MAcro)
WARNING : negative HOMO - LUMO gap : -0.017279

               *****************************************************
               *                     SUCCESS                       *
               *           SCF CONVERGED AFTER  33 CYCLES          *
               *****************************************************


----------------
TOTAL SCF ENERGY
----------------

Total Energy       :        -1162.92938378 Eh          -31644.91733 eV

Components:
Nuclear Repulsion  :         4450.38032180 Eh          121101.00521 eV
Electronic Energy  :        -5613.30970559 Eh         -152745.92254 eV
One Electron Energy:        -8189.65850776 Eh         -222851.93757 eV
Two Electron Energy:         2576.34880217 Eh           70106.01503 eV

Virial components:
Potential Energy   :        -5284.06479780 Eh         -143786.71312 eV
Kinetic Energy     :         4121.13541402 Eh          112141.79579 eV
Virial Ratio       :            1.28218665


DFT components:
N(Alpha)           :       27.999993971674 electrons
N(Beta)            :       27.999993971674 electrons
N(Total)           :       55.999987943349 electrons
E(X)               :     -153.758747265520 Eh       
E(C)               :       -3.142994562018 Eh       
E(XC)              :     -156.901741827538 Eh       
DFET-embed. en.    :        0.000000000000 Eh       

---------------
SCF CONVERGENCE
---------------

  Last Energy change         ...   -2.6464e-09  Tolerance :   1.0000e-08
  Last Orbital Gradient      ...    6.0165e-07  Tolerance :   1.0000e-05
  Last Orbital Rotation      ...    2.3948e-05

================================================================================
                                        WARNING
Check your MOs and check whether a frozen core calculation is appropriate
MO 0 should be a Cu s core orbital but seems to be delocalized with a Cu p orbital (84.6% vs. 13.4%)
================================================================================
================================================================================
                                        WARNING
Check your MOs and check whether a frozen core calculation is appropriate
MO 6 should be a Cu p core orbital but seems to be delocalized with a Cu s orbital (49.3% vs. 42.4%)
================================================================================
================================================================================
                                        WARNING
Check your MOs and check whether a frozen core calculation is appropriate
MO 9 should be a Cu p core orbital but seems to be delocalized with a Cu s orbital (62.3% vs. 59.7%)
================================================================================
             **** THE GBW FILE WAS UPDATED (cu2.gbw) ****
             **** DENSITY cu2.scfp WAS UPDATED ****
             **** ENERGY FILE WAS UPDATED (cu2.en.tmp) ****
             **** THE GBW FILE WAS UPDATED (cu2.gbw) ****
             **** DENSITY cu2.scfp WAS UPDATED ****
----------------
ORBITAL ENERGIES
----------------

  NO   OCC          E(Eh)            E(eV) 
   0   2.0000    -413.641646    -11255.7614 
   1   2.0000    -387.258422    -10537.8374 
   2   2.0000     -98.253130     -2673.6036 
   3   2.0000     -98.253130     -2673.6036 
   4   2.0000     -97.889587     -2663.7111 
   5   2.0000     -76.600800     -2084.4137 
   6   2.0000     -62.465340     -1699.7683 
   7   2.0000     -51.699493     -1406.8147 
   8   2.0000     -51.699493     -1406.8147 
   9   2.0000     -15.907362      -432.8613 
  10   2.0000     -15.189217      -413.3196 
  11   2.0000     -15.189217      -413.3196 
  12   2.0000     -14.939233      -406.5172 
  13   2.0000     -14.924899      -406.1271 
  14   2.0000     -10.323682      -280.9217 
  15   2.0000      -9.988055      -271.7888 
  16   2.0000      -6.347463      -172.7232 
  17   2.0000      -6.347463      -172.7232 
  18   2.0000      -2.845442       -77.4284 
  19   2.0000      -2.380122       -64.7664 
  20   2.0000      -2.333244       -63.4908 
  21   2.0000      -2.333244       -63.4908 
  22   2.0000      -1.453139       -39.5419 
  23   2.0000      -1.453139       -39.5419 
  24   2.0000      -1.284523       -34.9537 
  25   2.0000      -1.092834       -29.7375 
  26   2.0000      -1.079170       -29.3657 
  27   2.0000      -0.899727       -24.4828 
  28   0.0000      -0.917006       -24.9530 
  29   0.0000      -0.752987       -20.4898 
  30   0.0000      -0.530051       -14.4234 
  31   0.0000      -0.517664       -14.0864 
  32   0.0000      -0.517664       -14.0864 
  33   0.0000      -0.366948        -9.9852 
  34   0.0000      -0.330223        -8.9858 
  35   0.0000      -0.330223        -8.9858 
  36   0.0000      -0.240524        -6.5450 
  37   0.0000      -0.236822        -6.4442 
  38   0.0000      -0.229448        -6.2436 
  39   0.0000      -0.189145        -5.1469 
  40   0.0000      -0.162292        -4.4162 
  41   0.0000      -0.162292        -4.4162 
  42   0.0000      -0.148565        -4.0427 
  43   0.0000      -0.130168        -3.5421 
  44   0.0000      -0.130168        -3.5421 
  45   0.0000      -0.129036        -3.5113 
  46   0.0000      -0.126417        -3.4400 
  47   0.0000      -0.123143        -3.3509 
  48   0.0000       0.243258         6.6194 
  49   0.0000       0.248242         6.7550 
  50   0.0000       0.261484         7.1153 
  51   0.0000       0.261484         7.1153 
  52   0.0000       0.343157         9.3378 
  53   0.0000       0.343792         9.3551 
  54   0.0000       0.387557        10.5460 
  55   0.0000       0.387557        10.5460 
  56   0.0000       0.480789        13.0829 
  57   0.0000       0.484736        13.1903 
  58   0.0000       0.496560        13.5121 
  59   0.0000       0.864672        23.5289 
  60   0.0000       1.452045        39.5122 
  61   0.0000       1.452045        39.5122 
  62   0.0000       1.467615        39.9358 
  63   0.0000       1.467615        39.9358 
  64   0.0000       1.594256        43.3819 
  65   0.0000       1.594256        43.3819 
  66   0.0000       1.822652        49.5969 
  67   0.0000       2.218260        60.3619 
  68   0.0000       2.225668        60.5635 
  69   0.0000       2.728468        74.2454 
  70   0.0000       2.829015        76.9814 
  71   0.0000       3.987861       108.5152 
  72   0.0000       3.987861       108.5152 
  73   0.0000       5.479290       149.0991 
  74   0.0000       5.496222       149.5598 
  75   0.0000       5.730581       155.9370 
  76   0.0000       5.764815       156.8686 
  77   0.0000       5.764815       156.8686 
  78   0.0000       6.008517       163.5001 
  79   0.0000       6.008517       163.5001 
  80   0.0000       6.426020       174.8609 
  81   0.0000       6.680364       181.7819 
  82   0.0000       6.680364       181.7819 
  83   0.0000       7.805938       212.4104 
  84   0.0000       7.818433       212.7504 
  85   0.0000      28.295957       769.9721 
  86   0.0000      31.175741       848.3350 
  87   0.0000      40.435540      1100.3070 
  88   0.0000      40.435540      1100.3070 
  89   0.0000     289.102175      7866.8701 

                    ********************************
                    * MULLIKEN POPULATION ANALYSIS *
                    ********************************

-----------------------
MULLIKEN ATOMIC CHARGES
-----------------------
   0 Cu:    1.000000
   1 Cu:    1.000000
Sum of atomic charges:    2.0000000

--------------------------------
MULLIKEN REDUCED ORBITAL CHARGES
--------------------------------
  0 Cus       :     4.186111  s :     4.186111
      pz      :     4.744312  p :    13.521875
      px      :     4.388782
      py      :     4.388782
      dz2     :     2.295011  d :    10.772390
      dxz     :     1.697543
      dyz     :     1.697543
      dx2y2   :     3.031223
      dxy     :     2.051071
      f0      :    -0.225434  f :    -0.480376
      f+1     :    -0.086330
      f-1     :    -0.086330
      f+2     :    -0.031223
      f-2     :    -0.051071
      f+3     :     0.000006
      f-3     :     0.000006
  1 Cus       :     4.186111  s :     4.186111
      pz      :     4.744312  p :    13.521875
      px      :     4.388782
      py      :     4.388782
      dz2     :     2.295011  d :    10.772390
      dxz     :     1.697543
      dyz     :     1.697543
      dx2y2   :     3.031223
      dxy     :     2.051071
      f0      :    -0.225434  f :    -0.480376
      f+1     :    -0.086330
      f-1     :    -0.086330
      f+2     :    -0.031223
      f-2     :    -0.051071
      f+3     :     0.000006
      f-3     :     0.000006


                     *******************************
                     * LOEWDIN POPULATION ANALYSIS *
                     *******************************

----------------------
LOEWDIN ATOMIC CHARGES
----------------------
   0 Cu:    1.000000
   1 Cu:    1.000000

-------------------------------
LOEWDIN REDUCED ORBITAL CHARGES
-------------------------------
  0 Cus       :     5.046839  s :     5.046839
      pz      :     3.940337  p :    11.833500
      px      :     3.946581
      py      :     3.946581
      dz2     :     1.771259  d :     9.119393
      dxz     :     1.698176
      dyz     :     1.698176
      dx2y2   :     2.471745
      dxy     :     1.480036
      f0      :     0.241565  f :     2.000268
      f+1     :     0.355236
      f-1     :     0.355236
      f+2     :     0.528255
      f-2     :     0.519964
      f+3     :     0.000006
      f-3     :     0.000006
  1 Cus       :     5.046839  s :     5.046839
      pz      :     3.940337  p :    11.833500
      px      :     3.946581
      py      :     3.946581
      dz2     :     1.771259  d :     9.119393
      dxz     :     1.698176
      dyz     :     1.698176
      dx2y2   :     2.471745
      dxy     :     1.480036
      f0      :     0.241565  f :     2.000268
      f+1     :     0.355236
      f-1     :     0.355236
      f+2     :     0.528255
      f-2     :     0.519964
      f+3     :     0.000006
      f-3     :     0.000006


                      *****************************
                      * MAYER POPULATION ANALYSIS *
                      *****************************

  NA   - Mulliken gross atomic population
  ZA   - Total nuclear charge
  QA   - Mulliken gross atomic charge
  VA   - Mayer's total valence
  BVA  - Mayer's bonded valence
  FA   - Mayer's free valence

  ATOM       NA         ZA         QA         VA         BVA        FA
  0 Cu    28.0000    29.0000     1.0000   -24.5054   -24.5054    -0.0000
  1 Cu    28.0000    29.0000     1.0000   -24.5054   -24.5054     0.0000

  Mayer bond orders larger than 0.100000
B(  0-Cu,  1-Cu) : -24.5054 

-------
TIMINGS
-------

Total SCF time: 0 days 0 hours 0 min 1 sec 

Total time                  ....       1.849 sec
Sum of individual times     ....       1.644 sec  ( 88.9%)

Fock matrix formation       ....       1.250 sec  ( 67.6%)
  Split-RI-J                ....       0.509 sec  ( 40.7% of F)
  XC integration            ....       0.713 sec  ( 57.1% of F)
    Basis function eval.    ....       0.154 sec  ( 21.6% of XC)
    Density eval.           ....       0.112 sec  ( 15.7% of XC)
    XC-Functional eval.     ....       0.043 sec  (  6.0% of XC)
    XC-Potential eval.      ....       0.162 sec  ( 22.7% of XC)
Diagonalization             ....       0.050 sec  (  2.7%)
Density matrix formation    ....       0.006 sec  (  0.3%)
Population analysis         ....       0.002 sec  (  0.1%)
Initial guess               ....       0.014 sec  (  0.7%)
Orbital Transformation      ....       0.027 sec  (  1.4%)
Orbital Orthonormalization  ....       0.000 sec  (  0.0%)
DIIS solution               ....       0.051 sec  (  2.7%)
Grid generation             ....       0.245 sec  ( 13.2%)

Maximum memory used throughout the entire SCF-calculation: 10.1 MB


-------------------------------------------------------------------------------
                          DFT DISPERSION CORRECTION                            
                                                                               
                              DFTD3 V3.1  Rev 1                                
                          USING Becke-Johnson damping                          
-------------------------------------------------------------------------------
The PBE functional is recognized
Active option DFTDOPT                   ...         4   

molecular C6(AA) [au] = 709.181990 


            DFT-D V3
 parameters
 s6 scaling factor         :     1.0000 
 a1 scaling factor         :     0.4289 
 s8 scaling factor         :     0.7875 
 a2 scaling factor         :     4.4407 
 ad hoc parameters k1-k3   :    16.0000     1.3333    -4.0000 

 Edisp/kcal,au: -0.646459575802  -0.001030198799 
 E6   /kcal   :  -0.334706249 
 E8   /kcal   :  -0.311753327 
 % E8         :  48.224721007 

-------------------------   ----------------
Dispersion correction           -0.001030199
-------------------------   ----------------


-------------------------   --------------------
FINAL SINGLE POINT ENERGY     -1162.930413982460
-------------------------   --------------------



           ************************************************************
           *        Program running with 8 parallel MPI-processes     *
           *              working on a common directory               *
           ************************************************************
------------------------------------------------------------------------------
                         ORCA SCF GRADIENT CALCULATION
------------------------------------------------------------------------------

Gradient of the Kohn-Sham DFT energy:
Kohn-Sham wavefunction type      ... RKS
Hartree-Fock exchange scaling    ...    0.000
Number of operators              ...    1
Number of atoms                  ...    2
Basis set dimensions             ...   90
Integral neglect threshold       ... 2.5e-11
Integral primitive cutoff        ... 2.5e-12
SHARK Integral package           ... ON

Nuc. rep. gradient       (SHARK) ... done (  0.0 sec)
HCore & Overlap gradient (SHARK) ... done (  0.0 sec)
RI-J gradient            (SHARK) ... done (  0.2 sec)
Exchange-correlation gradient    ... done
Dispersion correction            ... done

------------------
CARTESIAN GRADIENT
------------------

   1   Cu  :   -0.000000005   -0.000000001 18332.483035916
   2   Cu  :    0.000000005    0.000000001 -18332.483035916

Difference to translation invariance:
           :    0.0000000000   -0.0000000000   -0.0000000001

Difference to rotation invariance:
           :   -0.0000000002    0.0000000009    0.0000000000

Norm of the cartesian gradient     ... 25926.0461413669
RMS gradient                       ... 10584.2640157003
MAX gradient                       ... 18332.4830359159

-------
TIMINGS
-------

Total SCF gradient time            ...        0.457 sec

One electron gradient       ....       0.013 sec  (  2.9%)
RI-J Coulomb gradient       ....       0.213 sec  ( 46.5%)
XC gradient                 ....       0.057 sec  ( 12.5%)

Maximum memory used throughout the entire SCFGRAD-calculation: 27.6 MB
------------------------------------------------------------------------------
                         ORCA GEOMETRY RELAXATION STEP
------------------------------------------------------------------------------

Reading the OPT-File                    .... done
Getting information on internals        .... done
Copying old internal coords+grads       .... done
Making the new internal coordinates     .... (new redundants).... done
Validating the new internal coordinates .... (new redundants).... done
Calculating the B-matrix                .... done
Calculating the G,G- and P matrices     .... done
Transforming gradient to internals      .... done
Projecting the internal gradient        .... done
Number of atoms                         ....   2
Number of internal coordinates          ....   1
Current Energy                          .... -1162.930413982 Eh
Current gradient norm                   .... 25926.046141367 Eh/bohr
Maximum allowed component of the step   ....  0.300
Current trust radius                    ....  0.300
Evaluating the initial hessian          ....  (Almloef) done
Projecting the Hessian                  .... done
Forming the augmented Hessian           .... done
Diagonalizing the augmented Hessian     .... done
Last element of RFO vector              ....  0.773176630
Lowest eigenvalues of augmented Hessian:
 -15037.044060037
Length of the computed step             ....  0.820240446
Warning: the length of the step is outside the trust region - taking restricted step instead
The input lambda is                     .... -15037.044060
   iter:   1  x=-24717.208749  g=    0.000060 f(x)=     0.582794
   iter:   2  x=-36332.361531  g=    0.000020 f(x)=     0.237582
   iter:   3  x=-47022.716788  g=    0.000008 f(x)=     0.086427
   iter:   4  x=-52710.916548  g=    0.000004 f(x)=     0.023834
   iter:   5  x=-53766.500909  g=    0.000003 f(x)=     0.003281
   iter:   6  x=-53795.167732  g=    0.000003 f(x)=     0.000085
   iter:   7  x=-53795.187873  g=    0.000003 f(x)=     0.000000
   iter:   8  x=-53795.187873  g=    0.000003 f(x)=     0.000000
   iter:   9  x=-53795.187873  g=    0.000003 f(x)=     0.000000
   iter:  10  x=-53795.187873  g=    0.000003 f(x)=     0.000000
The output lambda is                    .... -53795.187873 (10 iterations)
The final length of the internal step   ....  0.300000000
Converting the step to cartesian space:
 Initial RMS(Int)=    0.3000000000
Transforming coordinates:
 Iter   0:  RMS(Cart)=    0.0577350269 RMS(Int)=    0.2000000000
 Iter   1:  RMS(Cart)=    0.0288675135 RMS(Int)=    0.1000000000
 Iter   2:  RMS(Cart)=    0.0000000000 RMS(Int)=    0.0000000000
done
Storing new coordinates                 .... done

                                .--------------------.
          ----------------------|Geometry convergence|-------------------------
          Item                value                   Tolerance       Converged
          ---------------------------------------------------------------------
          RMS gradient    18332.4830359158            0.0001000000      NO
          MAX gradient    18332.4830359158            0.0003000000      NO
          RMS step            0.3000000000            0.0020000000      NO
          MAX step            0.3000000000            0.0040000000      NO
          ........................................................
          Max(Bonds)      0.1588      Max(Angles)    0.00
          Max(Dihed)        0.00      Max(Improp)    0.00
          ---------------------------------------------------------------------

The optimization has not yet converged - more geometry cycles are needed


    ---------------------------------------------------------------------------
                         Redundant Internal Coordinates
                            (Angstroem and degrees)

        Definition                    Value    dE/dq     Step     New-Value
    ----------------------------------------------------------------------------
     1. B(Cu  1,Cu  0)                0.1000 -18332.483036  0.1588    0.2588   
    ----------------------------------------------------------------------------

         *************************************************************
         *                GEOMETRY OPTIMIZATION CYCLE   2            *
         *************************************************************
---------------------------------
CARTESIAN COORDINATES (ANGSTROEM)
---------------------------------
  Cu     0.000000    0.000000   -0.079377
  Cu     0.000000    0.000000    0.179377

----------------------------
CARTESIAN COORDINATES (A.U.)
----------------------------
  NO LB      ZA    FRAG     MASS         X           Y           Z
   0 Cu   29.0000    0    63.550    0.000000    0.000000   -0.150000
   1 Cu   29.0000    0    63.550    0.000000    0.000000    0.338973

--------------------------------
INTERNAL COORDINATES (ANGSTROEM)
--------------------------------
 Cu     0   0   0     0.000000000000     0.00000000     0.00000000
 Cu     1   0   0     0.258753162490     0.00000000     0.00000000

---------------------------
INTERNAL COORDINATES (A.U.)
---------------------------
 Cu     0   0   0     0.000000000000     0.00000000     0.00000000
 Cu     1   0   0     0.488972613392     0.00000000     0.00000000



           ************************************************************
           *        Program running with 8 parallel MPI-processes     *
           *              working on a common directory               *
           ************************************************************
------------------------------------------------------------------------------
                   ___                                                        
                  /   \      - P O W E R E D   B Y -                         
                 /     \                                                     
                 |  |  |   _    _      __       _____    __    __             
                 |  |  |  | |  | |    /  \     |  _  \  |  |  /  |          
                  \  \/   | |  | |   /    \    | | | |  |  | /  /          
                 / \  \   | |__| |  /  /\  \   | |_| |  |  |/  /          
                |  |  |   |  __  | /  /__\  \  |    /   |      \           
                |  |  |   | |  | | |   __   |  |    \   |  |\   \          
                \     /   | |  | | |  |  |  |  | |\  \  |  | \   \       
                 \___/    |_|  |_| |__|  |__|  |_| \__\ |__|  \__/        
                                                                              
                      - O R C A' S   B I G   F R I E N D -                    
                                      &                                       
                       - I N T E G R A L  F E E D E R -                       
                                                                              
 v1 FN, 2020, v2 2021                                                         
------------------------------------------------------------------------------


Reading SHARK input file cu2.SHARKINP.tmp ... ok
----------------------
SHARK INTEGRAL PACKAGE
----------------------

Number of atoms                             ...      2
Number of basis functions                   ...     90
Number of shells                            ...     30
Maximum angular momentum                    ...      3
Integral batch strategy                     ... SHARK/LIBINT Hybrid
RI-J (if used) integral strategy            ... SPLIT-RIJ (Revised 2003 algorithm where possible)
Printlevel                                  ...      1
Contraction scheme used                     ... SEGMENTED contraction
Coulomb Range Separation                    ... NOT USED
Exchange Range Separation                   ... NOT USED
Finite Nucleus Model                        ... NOT USED
Auxiliary Coulomb fitting basis             ... AVAILABLE
   # of basis functions in Aux-J            ...    182
   # of shells in Aux-J                     ...     46
   Maximum angular momentum in Aux-J        ...      4
Auxiliary J/K fitting basis                 ... NOT available
Auxiliary Correlation fitting basis         ... NOT available
Auxiliary 'external' fitting basis          ... NOT available
Integral threshold                          ...     2.500000e-11
Primitive cut-off                           ...     2.500000e-12
Primitive pair pre-selection threshold      ...     2.500000e-12

Calculating pre-screening integrals         ... done (  0.1 sec) Dimension = 30
Organizing shell pair data                  ... done (  0.0 sec)
Shell pair information
Total number of shell pairs                 ...       465
Shell pairs after pre-screening             ...       465
Total number of primitive shell pairs       ...      2746
Primitive shell pairs kept                  ...      2647
          la=0 lb=0:     78 shell pairs
          la=1 lb=0:     96 shell pairs
          la=1 lb=1:     36 shell pairs
          la=2 lb=0:     96 shell pairs
          la=2 lb=1:     64 shell pairs
          la=2 lb=2:     36 shell pairs
          la=3 lb=0:     24 shell pairs
          la=3 lb=1:     16 shell pairs
          la=3 lb=2:     16 shell pairs
          la=3 lb=3:      3 shell pairs

Calculating one electron integrals          ... done (  0.0 sec)
Calculating RI/J V-Matrix + Cholesky decomp.... done (  0.0 sec)
Calculating Nuclear repulsion               ... done (  0.0 sec) ENN=   1719.932726223199 Eh

SHARK setup successfully completed in   0.2 seconds

Maximum memory used throughout the entire GTOINT-calculation: 17.2 MB


           ************************************************************
           *        Program running with 8 parallel MPI-processes     *
           *              working on a common directory               *
           ************************************************************

Diagonalization of the overlap matrix:
Smallest eigenvalue                        ... 1.228e-04
Time for diagonalization                   ...    0.003 sec
Threshold for overlap eigenvalues          ... 1.000e-08
Number of eigenvalues below threshold      ... 0
Time for construction of square roots      ...    0.002 sec
Total time needed                          ...    0.006 sec

-------------------
DFT GRID GENERATION
-------------------

General Integration Accuracy     IntAcc      ... 4.388
Radial Grid Type                 RadialGrid  ... OptM3 with GC (2021)
Angular Grid (max. ang.)         AngularGrid ... 4 (Lebedev-302)
Angular grid pruning method      GridPruning ... 4 (adaptive)
Weight generation scheme         WeightScheme... Becke
Basis function cutoff            BFCut       ... 1.0000e-11
Integration weight cutoff        WCut        ... 1.0000e-14
Angular grids for H and He will be reduced by one unit
Partially contracted basis set               ... off
Rotationally invariant grid construction     ... off

Total number of grid points                  ...    22462
Total number of batches                      ...      352
Average number of points per batch           ...       63
Average number of grid points per atom       ...    11231
Time for grid setup =    0.204 sec

--------------
SCF ITERATIONS
--------------
ITER       Energy         Delta-E        Max-DP      RMS-DP      [F,P]     Damp
               ***  Starting incremental Fock matrix formation  ***
  0  -2771.7050225549   0.000000000000216.69043879  4.61619043 24.8710604 0.7000
  1  -2834.5641874551 -62.859164900216152.47209333  3.24165843 17.2047285 0.7000
  2  -2873.6699276115 -39.105740156415107.25402308  2.28016350 11.9462099 0.7000
  3  -2899.3945811782 -25.72465356667867.42403676  1.43282380  8.3161033 0.7000
  4  -2917.0767815375 -17.68220035925547.69431955  1.00922827  5.7987233 0.7000
  5  -2929.3084605006 -12.23167896313833.56834993  0.70880646  4.0482310 0.7000
  6  -2937.8254779873  -8.51701748671423.46792817  0.49499456  2.8284797 0.7000
  7  -2943.7719569913  -5.94647900394216.32775803  0.34412317  1.9773511 0.7000
  8  -2947.9287504302  -4.15679343898311.32890457  0.23860924  1.3828708 0.7000
  9  -2950.8362499999  -2.907499569679 7.85040490  0.16525316  0.9673746 0.7000
 10  -2952.8705800740  -2.034330074044 5.43822123  0.11442567  0.6768424 0.7000
 11  -2954.2942252904  -1.423645216425 3.76768597  0.07925027  0.4736261 0.7000
                               ***Turning on DIIS***
 12  -2955.2906111851  -0.996385894744 2.61093248  0.05490705  0.3314531 0.7000
 13  -2955.9880087157  -0.697397530616 1.79334145  0.03768795  0.2319718 0.7000
 14  -2956.4761546576  -0.488145941830 1.23876245  0.02604516  0.1623618 0.7000
 15  -2956.8178425843  -0.341687926704 0.86145446  0.01812082  0.1136452 0.7000
 16  -2957.0570177119  -0.239175127626 2.00384142  0.04216278  0.0795478 0.0000
 17  -2957.6150728871  -0.558055175154 0.00504786  0.00010266  0.0000307 0.0000
 18  -2957.6150728901  -0.000000003069 0.00044938  0.00001151  0.0000113 0.0000
 19  -2957.6150728913  -0.000000001136 0.00003190  0.00000130  0.0000019 0.0000
               *** Restarting incremental Fock matrix formation ***
                                   *** Resetting DIIS ***
                            ***DIIS convergence achieved***

               *****************************************************
               *                     SUCCESS                       *
               *           SCF CONVERGED AFTER  20 CYCLES          *
               *****************************************************

Total Energy       :        -2957.61507289 Eh          -80480.79770 eV
  Last Energy change         ...    3.4470e-10  Tolerance :   1.0000e-08
  Last MAX-Density change    ...    1.1382e-05  Tolerance :   1.0000e-07
================================================================================
                                        WARNING
Check your MOs and check whether a frozen core calculation is appropriate
MO 2 should be a Cu p core orbital but seems to be delocalized with a Cu s orbital (57.2% vs. 39.0%)
================================================================================
================================================================================
                                        WARNING
Check your MOs and check whether a frozen core calculation is appropriate
MO 3 should be a Cu p core orbital but seems to be delocalized with a Cu d orbital (89.9% vs.  8.3%)
================================================================================
================================================================================
                                        WARNING
Check your MOs and check whether a frozen core calculation is appropriate
MO 4 should be a Cu p core orbital but seems to be delocalized with a Cu d orbital (89.9% vs.  8.3%)
================================================================================
================================================================================
                                        WARNING
Check your MOs and check whether a frozen core calculation is appropriate
MO 6 should be a Cu p core orbital but seems to be delocalized with a Cu s orbital (51.2% vs. 48.9%)
================================================================================
             **** THE GBW FILE WAS UPDATED (cu2.gbw) ****
             **** DENSITY cu2.scfp WAS UPDATED ****
             **** ENERGY FILE WAS UPDATED (cu2.en.tmp) ****
             **** THE GBW FILE WAS UPDATED (cu2.gbw) ****
             **** DENSITY cu2.scfp WAS UPDATED ****
Total SCF time: 0 days 0 hours 0 min 1 sec 

Maximum memory used throughout the entire SCF-calculation: 10.1 MB


-------------------------------------------------------------------------------
                          DFT DISPERSION CORRECTION                            
                                                                               
                              DFTD3 V3.1  Rev 1                                
                          USING Becke-Johnson damping                          
-------------------------------------------------------------------------------
-------------------------   ----------------
Dispersion correction           -0.001030199
-------------------------   ----------------


-------------------------   --------------------
FINAL SINGLE POINT ENERGY     -2957.616103089699
-------------------------   --------------------



           ************************************************************
           *        Program running with 8 parallel MPI-processes     *
           *              working on a common directory               *
           ************************************************************
------------------------------------------------------------------------------
                         ORCA SCF GRADIENT CALCULATION
------------------------------------------------------------------------------

Gradient of the Kohn-Sham DFT energy:
Kohn-Sham wavefunction type      ... RKS
Hartree-Fock exchange scaling    ...    0.000
Number of operators              ...    1
Number of atoms                  ...    2
Basis set dimensions             ...   90
Integral neglect threshold       ... 2.5e-11
Integral primitive cutoff        ... 2.5e-12
SHARK Integral package           ... ON

Nuc. rep. gradient       (SHARK) ... done (  0.0 sec)
HCore & Overlap gradient (SHARK) ... done (  0.0 sec)
RI-J gradient            (SHARK) ... done (  0.2 sec)
Exchange-correlation gradient    ... done
Dispersion correction            ... done

------------------
CARTESIAN GRADIENT
------------------

   1   Cu  :    0.000000001    0.000000000 1547.857446583
   2   Cu  :   -0.000000001   -0.000000000 -1547.857446583

Difference to translation invariance:
           :    0.0000000000   -0.0000000000   -0.0000000000

Difference to rotation invariance:
           :    0.0000000001   -0.0000000005    0.0000000000

Norm of the cartesian gradient     ... 2189.0009935783
RMS gradient                       ...  893.6559134520
MAX gradient                       ... 1547.8574465833

-------
TIMINGS
-------

Total SCF gradient time            ...        0.445 sec

One electron gradient       ....       0.012 sec  (  2.7%)
RI-J Coulomb gradient       ....       0.209 sec  ( 47.1%)
XC gradient                 ....       0.057 sec  ( 12.8%)

Maximum memory used throughout the entire SCFGRAD-calculation: 27.6 MB
------------------------------------------------------------------------------
                         ORCA GEOMETRY RELAXATION STEP
------------------------------------------------------------------------------

Reading the OPT-File                    .... done
Getting information on internals        .... done
Copying old internal coords+grads       .... done
Making the new internal coordinates     .... (new redundants).... done
Validating the new internal coordinates .... (new redundants).... done
Calculating the B-matrix                .... done
Calculating the G,G- and P matrices     .... done
Transforming gradient to internals      .... done
Projecting the internal gradient        .... done
Number of atoms                         ....   2
Number of internal coordinates          ....   1
Current Energy                          .... -2957.616103090 Eh
Current gradient norm                   ....  2189.000993578 Eh/bohr
Maximum allowed component of the step   ....  0.300
Current trust radius                    ....  0.300
Updating the Hessian (BFGS)             .... done
Forming the augmented Hessian           .... done
Diagonalizing the augmented Hessian     .... done
Last element of RFO vector              ....  0.999618110
Lowest eigenvalues of augmented Hessian:
 -42.789725066
Length of the computed step             ....  0.027644487
The final length of the internal step   ....  0.027644487
Converting the step to cartesian space:
 Initial RMS(Int)=    0.0276444870
Transforming coordinates:
 Iter   0:  RMS(Cart)=    0.0079802760 RMS(Int)=    0.0276444870
 Iter   1:  RMS(Cart)=    0.0000000000 RMS(Int)=    0.0000000000
done
Storing new coordinates                 .... done

                                .--------------------.
          ----------------------|Geometry convergence|-------------------------
          Item                value                   Tolerance       Converged
          ---------------------------------------------------------------------
          Energy change   -1794.6856891072            0.0000050000      NO
          RMS gradient     1547.8574465833            0.0001000000      NO
          MAX gradient     1547.8574465833            0.0003000000      NO
          RMS step            0.0276444870            0.0020000000      NO
          MAX step            0.0276444870            0.0040000000      NO
          ........................................................
          Max(Bonds)      0.0146      Max(Angles)    0.00
          Max(Dihed)        0.00      Max(Improp)    0.00
          ---------------------------------------------------------------------

The optimization has not yet converged - more geometry cycles are needed


    ---------------------------------------------------------------------------
                         Redundant Internal Coordinates
                            (Angstroem and degrees)

        Definition                    Value    dE/dq     Step     New-Value
    ----------------------------------------------------------------------------
     1. B(Cu  1,Cu  0)                0.2588 -1547.857447  0.0146    0.2734   
    ----------------------------------------------------------------------------

         *************************************************************
         *                GEOMETRY OPTIMIZATION CYCLE   3            *
         *************************************************************
---------------------------------
CARTESIAN COORDINATES (ANGSTROEM)
---------------------------------
  Cu     0.000000    0.000000   -0.086691
  Cu     0.000000    0.000000    0.186691

----------------------------
CARTESIAN COORDINATES (A.U.)
----------------------------
  NO LB      ZA    FRAG     MASS         X           Y           Z
   0 Cu   29.0000    0    63.550    0.000000    0.000000   -0.163822
   1 Cu   29.0000    0    63.550    0.000000    0.000000    0.352795

--------------------------------
INTERNAL COORDINATES (ANGSTROEM)
--------------------------------
 Cu     0   0   0     0.000000000000     0.00000000     0.00000000
 Cu     1   0   0     0.273381994948     0.00000000     0.00000000

---------------------------
INTERNAL COORDINATES (A.U.)
---------------------------
 Cu     0   0   0     0.000000000000     0.00000000     0.00000000
 Cu     1   0   0     0.516617100396     0.00000000     0.00000000



           ************************************************************
           *        Program running with 8 parallel MPI-processes     *
           *              working on a common directory               *
           ************************************************************
------------------------------------------------------------------------------
                   ___                                                        
                  /   \      - P O W E R E D   B Y -                         
                 /     \                                                     
                 |  |  |   _    _      __       _____    __    __             
                 |  |  |  | |  | |    /  \     |  _  \  |  |  /  |          
                  \  \/   | |  | |   /    \    | | | |  |  | /  /          
                 / \  \   | |__| |  /  /\  \   | |_| |  |  |/  /          
                |  |  |   |  __  | /  /__\  \  |    /   |      \           
                |  |  |   | |  | | |   __   |  |    \   |  |\   \          
                \     /   | |  | | |  |  |  |  | |\  \  |  | \   \       
                 \___/    |_|  |_| |__|  |__|  |_| \__\ |__|  \__/        
                                                                              
                      - O R C A' S   B I G   F R I E N D -                    
                                      &                                       
                       - I N T E G R A L  F E E D E R -                       
                                                                              
 v1 FN, 2020, v2 2021                                                         
------------------------------------------------------------------------------


Reading SHARK input file cu2.SHARKINP.tmp ... ok
----------------------
SHARK INTEGRAL PACKAGE
----------------------

Number of atoms                             ...      2
Number of basis functions                   ...     90
Number of shells                            ...     30
Maximum angular momentum                    ...      3
Integral batch strategy                     ... SHARK/LIBINT Hybrid
RI-J (if used) integral strategy            ... SPLIT-RIJ (Revised 2003 algorithm where possible)
Printlevel                                  ...      1
Contraction scheme used                     ... SEGMENTED contraction
Coulomb Range Separation                    ... NOT USED
Exchange Range Separation                   ... NOT USED
Finite Nucleus Model                        ... NOT USED
Auxiliary Coulomb fitting basis             ... AVAILABLE
   # of basis functions in Aux-J            ...    182
   # of shells in Aux-J                     ...     46
   Maximum angular momentum in Aux-J        ...      4
Auxiliary J/K fitting basis                 ... NOT available
Auxiliary Correlation fitting basis         ... NOT available
Auxiliary 'external' fitting basis          ... NOT available
Integral threshold                          ...     2.500000e-11
Primitive cut-off                           ...     2.500000e-12
Primitive pair pre-selection threshold      ...     2.500000e-12

Calculating pre-screening integrals         ... done (  0.0 sec) Dimension = 30
Organizing shell pair data                  ... done (  0.0 sec)
Shell pair information
Total number of shell pairs                 ...       465
Shell pairs after pre-screening             ...       465
Total number of primitive shell pairs       ...      2746
Primitive shell pairs kept                  ...      2633
          la=0 lb=0:     78 shell pairs
          la=1 lb=0:     96 shell pairs
          la=1 lb=1:     36 shell pairs
          la=2 lb=0:     96 shell pairs
          la=2 lb=1:     64 shell pairs
          la=2 lb=2:     36 shell pairs
          la=3 lb=0:     24 shell pairs
          la=3 lb=1:     16 shell pairs
          la=3 lb=2:     16 shell pairs
          la=3 lb=3:      3 shell pairs

Calculating one electron integrals          ... done (  0.0 sec)
Calculating RI/J V-Matrix + Cholesky decomp.... done (  0.0 sec)
Calculating Nuclear repulsion               ... done (  0.0 sec) ENN=   1627.898107427627 Eh

SHARK setup successfully completed in   0.2 seconds

Maximum memory used throughout the entire GTOINT-calculation: 17.2 MB


           ************************************************************
           *        Program running with 8 parallel MPI-processes     *
           *              working on a common directory               *
           ************************************************************

Diagonalization of the overlap matrix:
Smallest eigenvalue                        ... 1.357e-04
Time for diagonalization                   ...    0.003 sec
Threshold for overlap eigenvalues          ... 1.000e-08
Number of eigenvalues below threshold      ... 0
Time for construction of square roots      ...    0.002 sec
Total time needed                          ...    0.006 sec

-------------------
DFT GRID GENERATION
-------------------

General Integration Accuracy     IntAcc      ... 4.388
Radial Grid Type                 RadialGrid  ... OptM3 with GC (2021)
Angular Grid (max. ang.)         AngularGrid ... 4 (Lebedev-302)
Angular grid pruning method      GridPruning ... 4 (adaptive)
Weight generation scheme         WeightScheme... Becke
Basis function cutoff            BFCut       ... 1.0000e-11
Integration weight cutoff        WCut        ... 1.0000e-14
Angular grids for H and He will be reduced by one unit
Partially contracted basis set               ... off
Rotationally invariant grid construction     ... off

Total number of grid points                  ...    22462
Total number of batches                      ...      352
Average number of points per batch           ...       63
Average number of grid points per atom       ...    11231
Time for grid setup =    0.216 sec

--------------
SCF ITERATIONS
--------------
ITER       Energy         Delta-E        Max-DP      RMS-DP      [F,P]     Damp
               ***  Starting incremental Fock matrix formation  ***
  0  -2996.6514841056   0.000000000000 1.51028770  0.03573297  0.3794516 0.7000
  1  -2996.7047708021  -0.053286696468 1.34786886  0.03065846  0.2660460 0.7000
                               ***Turning on DIIS***
  2  -2996.7415759403  -0.036805138241 0.97593556  0.02202402  0.1863532 0.7000
  3  -2996.7671526429  -0.025576702586 0.61323940  0.01399803  0.1305384 0.7000
  4  -2996.7849865454  -0.017833902460 1.28231499  0.02978813  0.0913622 0.0000
  5  -2996.8264926876  -0.041506142201 0.06431843  0.00136422  0.0002203 0.0000
  6  -2996.8264928606  -0.000000173031 0.00422673  0.00009192  0.0001593 0.0000
  7  -2996.8264929840  -0.000000123363 0.00035078  0.00001180  0.0000080 0.0000
  8  -2996.8264929889  -0.000000004957 0.00004662  0.00000120  0.0000022 0.0000
                            ***DIIS convergence achieved***

               *****************************************************
               *                     SUCCESS                       *
               *           SCF CONVERGED AFTER   9 CYCLES          *
               *****************************************************

Total Energy       :        -2996.82649299 Eh          -81547.79468 eV
  Last Energy change         ...    1.0205e-09  Tolerance :   1.0000e-08
  Last MAX-Density change    ...    3.5220e-05  Tolerance :   1.0000e-07
================================================================================
                                        WARNING
Check your MOs and check whether a frozen core calculation is appropriate
MO 2 should be a Cu p core orbital but seems to be delocalized with a Cu s orbital (57.7% vs. 37.5%)
================================================================================
================================================================================
                                        WARNING
Check your MOs and check whether a frozen core calculation is appropriate
MO 6 should be a Cu p core orbital but seems to be delocalized with a Cu s orbital (51.4% vs. 49.1%)
================================================================================
             **** THE GBW FILE WAS UPDATED (cu2.gbw) ****
             **** DENSITY cu2.scfp WAS UPDATED ****
             **** ENERGY FILE WAS UPDATED (cu2.en.tmp) ****
             **** THE GBW FILE WAS UPDATED (cu2.gbw) ****
             **** DENSITY cu2.scfp WAS UPDATED ****
Total SCF time: 0 days 0 hours 0 min 0 sec 

Maximum memory used throughout the entire SCF-calculation: 10.1 MB


-------------------------------------------------------------------------------
                          DFT DISPERSION CORRECTION                            
                                                                               
                              DFTD3 V3.1  Rev 1                                
                          USING Becke-Johnson damping                          
-------------------------------------------------------------------------------
-------------------------   ----------------
Dispersion correction           -0.001030199
-------------------------   ----------------


-------------------------   --------------------
FINAL SINGLE POINT ENERGY     -2996.827523186667
-------------------------   --------------------



           ************************************************************
           *        Program running with 8 parallel MPI-processes     *
           *              working on a common directory               *
           ************************************************************
------------------------------------------------------------------------------
                         ORCA SCF GRADIENT CALCULATION
------------------------------------------------------------------------------

Gradient of the Kohn-Sham DFT energy:
Kohn-Sham wavefunction type      ... RKS
Hartree-Fock exchange scaling    ...    0.000
Number of operators              ...    1
Number of atoms                  ...    2
Basis set dimensions             ...   90
Integral neglect threshold       ... 2.5e-11
Integral primitive cutoff        ... 2.5e-12
SHARK Integral package           ... ON

Nuc. rep. gradient       (SHARK) ... done (  0.0 sec)
HCore & Overlap gradient (SHARK) ... done (  0.0 sec)
RI-J gradient            (SHARK) ... done (  0.2 sec)
Exchange-correlation gradient    ... done
Dispersion correction            ... done

------------------
CARTESIAN GRADIENT
------------------

   1   Cu  :    0.000000000   -0.000000001 1297.862254412
   2   Cu  :   -0.000000000    0.000000001 -1297.862254412

Difference to translation invariance:
           :   -0.0000000000   -0.0000000000   -0.0000000000

Difference to rotation invariance:
           :   -0.0000000004   -0.0000000003    0.0000000000

Norm of the cartesian gradient     ... 1835.4544022818
RMS gradient                       ...  749.3211219559
MAX gradient                       ... 1297.8622544122

-------
TIMINGS
-------

Total SCF gradient time            ...        0.442 sec

One electron gradient       ....       0.012 sec  (  2.8%)
RI-J Coulomb gradient       ....       0.200 sec  ( 45.2%)
XC gradient                 ....       0.056 sec  ( 12.7%)

Maximum memory used throughout the entire SCFGRAD-calculation: 27.6 MB
------------------------------------------------------------------------------
                         ORCA GEOMETRY RELAXATION STEP
------------------------------------------------------------------------------

Reading the OPT-File                    .... done
Getting information on internals        .... done
Copying old internal coords+grads       .... done
Making the new internal coordinates     .... (new redundants).... done
Validating the new internal coordinates .... (new redundants).... done
Calculating the B-matrix                .... done
Calculating the G,G- and P matrices     .... done
Transforming gradient to internals      .... done
[...]
Transforming coordinates:
 Iter   0:  RMS(Cart)=    0.0577350269 RMS(Int)=    0.2000000000
 Iter   1:  RMS(Cart)=    0.0288675135 RMS(Int)=    0.1000000000
 Iter   2:  RMS(Cart)=    0.0000000000 RMS(Int)=    0.0000000000
done
Storing new coordinates                 .... done

                                .--------------------.
          ----------------------|Geometry convergence|-------------------------
          Item                value                   Tolerance       Converged
          ---------------------------------------------------------------------
          Energy change      -0.0007104659            0.0000050000      NO
          RMS gradient        0.0023339142            0.0001000000      NO
          MAX gradient        0.0023339142            0.0003000000      NO
          RMS step            0.3000000000            0.0020000000      NO
          MAX step            0.3000000000            0.0040000000      NO
          ........................................................
          Max(Bonds)      0.1588      Max(Angles)    0.00
          Max(Dihed)        0.00      Max(Improp)    0.00
          ---------------------------------------------------------------------

The optimization has not yet converged - more geometry cycles are needed


    ---------------------------------------------------------------------------
                         Redundant Internal Coordinates
                            (Angstroem and degrees)

        Definition                    Value    dE/dq     Step     New-Value
    ----------------------------------------------------------------------------
     1. B(Cu  1,Cu  0)               10.9401 -0.002334  0.1588   11.0989   
    ----------------------------------------------------------------------------

         *************************************************************
         *                GEOMETRY OPTIMIZATION CYCLE  75            *
         *************************************************************
---------------------------------
CARTESIAN COORDINATES (ANGSTROEM)
---------------------------------
  Cu     0.000000    0.000000   -5.499437
  Cu     0.000000    0.000000    5.599437

----------------------------
CARTESIAN COORDINATES (A.U.)
----------------------------
  NO LB      ZA    FRAG     MASS         X           Y           Z
   0 Cu   29.0000    0    63.550    0.000000    0.000000  -10.392429
   1 Cu   29.0000    0    63.550    0.000000    0.000000   10.581402

--------------------------------
INTERNAL COORDINATES (ANGSTROEM)
--------------------------------
 Cu     0   0   0     0.000000000000     0.00000000     0.00000000
 Cu     1   0   0    11.098873179646     0.00000000     0.00000000

---------------------------
INTERNAL COORDINATES (A.U.)
---------------------------
 Cu     0   0   0     0.000000000000     0.00000000     0.00000000
 Cu     1   0   0    20.973830704656     0.00000000     0.00000000



           ************************************************************
           *        Program running with 8 parallel MPI-processes     *
           *              working on a common directory               *
           ************************************************************
------------------------------------------------------------------------------
                   ___                                                        
                  /   \      - P O W E R E D   B Y -                         
                 /     \                                                     
                 |  |  |   _    _      __       _____    __    __             
                 |  |  |  | |  | |    /  \     |  _  \  |  |  /  |          
                  \  \/   | |  | |   /    \    | | | |  |  | /  /          
                 / \  \   | |__| |  /  /\  \   | |_| |  |  |/  /          
                |  |  |   |  __  | /  /__\  \  |    /   |      \           
                |  |  |   | |  | | |   __   |  |    \   |  |\   \          
                \     /   | |  | | |  |  |  |  | |\  \  |  | \   \       
                 \___/    |_|  |_| |__|  |__|  |_| \__\ |__|  \__/        
                                                                              
                      - O R C A' S   B I G   F R I E N D -                    
                                      &                                       
                       - I N T E G R A L  F E E D E R -                       
                                                                              
 v1 FN, 2020, v2 2021                                                         
------------------------------------------------------------------------------


Reading SHARK input file cu2.SHARKINP.tmp ... ok
----------------------
SHARK INTEGRAL PACKAGE
----------------------

Number of atoms                             ...      2
Number of basis functions                   ...     90
Number of shells                            ...     30
Maximum angular momentum                    ...      3
Integral batch strategy                     ... SHARK/LIBINT Hybrid
RI-J (if used) integral strategy            ... SPLIT-RIJ (Revised 2003 algorithm where possible)
Printlevel                                  ...      1
Contraction scheme used                     ... SEGMENTED contraction
Coulomb Range Separation                    ... NOT USED
Exchange Range Separation                   ... NOT USED
Finite Nucleus Model                        ... NOT USED
Auxiliary Coulomb fitting basis             ... AVAILABLE
   # of basis functions in Aux-J            ...    182
   # of shells in Aux-J                     ...     46
   Maximum angular momentum in Aux-J        ...      4
Auxiliary J/K fitting basis                 ... NOT available
Auxiliary Correlation fitting basis         ... NOT available
Auxiliary 'external' fitting basis          ... NOT available
Integral threshold                          ...     2.500000e-11
Primitive cut-off                           ...     2.500000e-12
Primitive pair pre-selection threshold      ...     2.500000e-12

Calculating pre-screening integrals         ... done (  0.1 sec) Dimension = 30
Organizing shell pair data                  ... done (  0.0 sec)
Shell pair information
Total number of shell pairs                 ...       465
Shell pairs after pre-screening             ...       279
Total number of primitive shell pairs       ...      2746
Primitive shell pairs kept                  ...      1525
          la=0 lb=0:     54 shell pairs
          la=1 lb=0:     58 shell pairs
          la=1 lb=1:     20 shell pairs
          la=2 lb=0:     58 shell pairs
          la=2 lb=1:     34 shell pairs
          la=2 lb=2:     23 shell pairs
          la=3 lb=0:     14 shell pairs
          la=3 lb=1:      8 shell pairs
          la=3 lb=2:      8 shell pairs
          la=3 lb=3:      2 shell pairs

Calculating one electron integrals          ... done (  0.0 sec)
Calculating RI/J V-Matrix + Cholesky decomp.... done (  0.0 sec)
Calculating Nuclear repulsion               ... done (  0.0 sec) ENN=     40.097586933098 Eh

SHARK setup successfully completed in   0.2 seconds

Maximum memory used throughout the entire GTOINT-calculation: 17.2 MB


           ************************************************************
           *        Program running with 8 parallel MPI-processes     *
           *              working on a common directory               *
           ************************************************************

Diagonalization of the overlap matrix:
Smallest eigenvalue                        ... 7.072e-02
Time for diagonalization                   ...    0.005 sec
Threshold for overlap eigenvalues          ... 1.000e-08
Number of eigenvalues below threshold      ... 0
Time for construction of square roots      ...    0.002 sec
Total time needed                          ...    0.008 sec

-------------------
DFT GRID GENERATION
-------------------

General Integration Accuracy     IntAcc      ... 4.388
Radial Grid Type                 RadialGrid  ... OptM3 with GC (2021)
Angular Grid (max. ang.)         AngularGrid ... 4 (Lebedev-302)
Angular grid pruning method      GridPruning ... 4 (adaptive)
Weight generation scheme         WeightScheme... Becke
Basis function cutoff            BFCut       ... 1.0000e-11
Integration weight cutoff        WCut        ... 1.0000e-14
Angular grids for H and He will be reduced by one unit
Partially contracted basis set               ... off
Rotationally invariant grid construction     ... off

Total number of grid points                  ...    22672
Total number of batches                      ...      356
Average number of points per batch           ...       63
Average number of grid points per atom       ...    11336
Time for grid setup =    0.169 sec

--------------
SCF ITERATIONS
--------------
ITER       Energy         Delta-E        Max-DP      RMS-DP      [F,P]     Damp
               ***  Starting incremental Fock matrix formation  ***
  0  -3279.8417504583   0.000000000000 0.00002114  0.00000068  0.0000503 0.7000
  1  -3279.8417504687  -0.000000010364 0.00002384  0.00000075  0.0000393 0.7000
                               ***Turning on DIIS***
  2  -3279.8417504752  -0.000000006468 0.00007503  0.00000266  0.0000274 0.0000
  3  -3279.8417504873  -0.000000012151 0.00001155  0.00000046  0.0000115 0.0000
                            ***DIIS convergence achieved***

               *****************************************************
               *                     SUCCESS                       *
               *           SCF CONVERGED AFTER   4 CYCLES          *
               *****************************************************

Total Energy       :        -3279.84175049 Eh          -89249.03136 eV
  Last Energy change         ...   -3.8744e-10  Tolerance :   1.0000e-08
  Last MAX-Density change    ...    1.4849e-06  Tolerance :   1.0000e-07
             **** THE GBW FILE WAS UPDATED (cu2.gbw) ****
             **** DENSITY cu2.scfp WAS UPDATED ****
             **** ENERGY FILE WAS UPDATED (cu2.en.tmp) ****
             **** THE GBW FILE WAS UPDATED (cu2.gbw) ****
             **** DENSITY cu2.scfp WAS UPDATED ****
Total SCF time: 0 days 0 hours 0 min 0 sec 

Maximum memory used throughout the entire SCF-calculation: 9.7 MB


-------------------------------------------------------------------------------
                          DFT DISPERSION CORRECTION                            
                                                                               
                              DFTD3 V3.1  Rev 1                                
                          USING Becke-Johnson damping                          
-------------------------------------------------------------------------------
-------------------------   ----------------
Dispersion correction           -0.000004460
-------------------------   ----------------


-------------------------   --------------------
FINAL SINGLE POINT ENERGY     -3279.841754947912
-------------------------   --------------------



           ************************************************************
           *        Program running with 8 parallel MPI-processes     *
           *              working on a common directory               *
           ************************************************************
------------------------------------------------------------------------------
                         ORCA SCF GRADIENT CALCULATION
------------------------------------------------------------------------------

Gradient of the Kohn-Sham DFT energy:
Kohn-Sham wavefunction type      ... RKS
Hartree-Fock exchange scaling    ...    0.000
Number of operators              ...    1
Number of atoms                  ...    2
Basis set dimensions             ...   90
Integral neglect threshold       ... 2.5e-11
Integral primitive cutoff        ... 2.5e-12
SHARK Integral package           ... ON

Nuc. rep. gradient       (SHARK) ... done (  0.0 sec)
HCore & Overlap gradient (SHARK) ... done (  0.0 sec)
RI-J gradient            (SHARK) ... done (  0.2 sec)
Exchange-correlation gradient    ... done
Dispersion correction            ... done

------------------
CARTESIAN GRADIENT
------------------

   1   Cu  :   -0.000000000    0.000000000    0.002267858
   2   Cu  :    0.000000000   -0.000000000   -0.002267858

Difference to translation invariance:
           :    0.0000000000    0.0000000000    0.0000000001

Difference to rotation invariance:
           :    0.0000000000    0.0000000000    0.0000000000

Norm of the cartesian gradient     ...    0.0032072358
RMS gradient                       ...    0.0013093485
MAX gradient                       ...    0.0022678582

-------
TIMINGS
-------

Total SCF gradient time            ...        0.361 sec

One electron gradient       ....       0.012 sec  (  3.2%)
RI-J Coulomb gradient       ....       0.158 sec  ( 43.8%)
XC gradient                 ....       0.023 sec  (  6.4%)

Maximum memory used throughout the entire SCFGRAD-calculation: 27.1 MB
------------------------------------------------------------------------------
                         ORCA GEOMETRY RELAXATION STEP
------------------------------------------------------------------------------

Reading the OPT-File                    .... done
Getting information on internals        .... done
Copying old internal coords+grads       .... done
Making the new internal coordinates     .... (new redundants).... done
Validating the new internal coordinates .... (new redundants).... done
Calculating the B-matrix                .... done
Calculating the G,G- and P matrices     .... done
Transforming gradient to internals      .... done
Projecting the internal gradient        .... done
Number of atoms                         ....   2
Number of internal coordinates          ....   1
Current Energy                          .... -3279.841754948 Eh
Current gradient norm                   ....     0.003207236 Eh/bohr
Maximum allowed component of the step   ....  0.300
Current trust radius                    ....  0.300
Updating the Hessian (BFGS)             .... done
Forming the augmented Hessian           .... done
Diagonalizing the augmented Hessian     .... done
Last element of RFO vector              ....  0.724046952
Lowest eigenvalues of augmented Hessian:
 -0.002160436
Length of the computed step             ....  0.952632541
Warning: the length of the step is outside the trust region - taking restricted step instead
The input lambda is                     ....    -0.002160
   iter:   1  x=   -0.003233  g=  762.413351 f(x)=     0.817509
   iter:   2  x=   -0.004599  g=  249.870436 f(x)=     0.341387
   iter:   3  x=   -0.006029  g=   91.907797 f(x)=     0.131458
   iter:   4  x=   -0.007018  g=   42.143616 f(x)=     0.041688
   iter:   5  x=   -0.007319  g=   27.119924 f(x)=     0.008156
   iter:   6  x=   -0.007339  g=   24.002351 f(x)=     0.000481
   iter:   7  x=   -0.007339  g=   23.811773 f(x)=     0.000002
   iter:   8  x=   -0.007339  g=   23.811014 f(x)=     0.000000
   iter:   9  x=   -0.007339  g=   23.811013 f(x)=     0.000000
The output lambda is                    ....    -0.007339 (9 iterations)
The final length of the internal step   ....  0.300000000
Converting the step to cartesian space:
 Initial RMS(Int)=    0.3000000000
Transforming coordinates:
 Iter   0:  RMS(Cart)=    0.0577350269 RMS(Int)=    0.2000000000
 Iter   1:  RMS(Cart)=    0.0288675135 RMS(Int)=    0.1000000000
 Iter   2:  RMS(Cart)=    0.0000000000 RMS(Int)=    0.0000000000
done
Storing new coordinates                 .... done

                                .--------------------.
          ----------------------|Geometry convergence|-------------------------
          Item                value                   Tolerance       Converged
          ---------------------------------------------------------------------
          Energy change      -0.0006901984            0.0000050000      NO
          RMS gradient        0.0022678582            0.0001000000      NO
          MAX gradient        0.0022678582            0.0003000000      NO
          RMS step            0.3000000000            0.0020000000      NO
          MAX step            0.3000000000            0.0040000000      NO
          ........................................................
          Max(Bonds)      0.1588      Max(Angles)    0.00
          Max(Dihed)        0.00      Max(Improp)    0.00
          ---------------------------------------------------------------------

The optimization has not yet converged - more geometry cycles are needed


    ---------------------------------------------------------------------------
                         Redundant Internal Coordinates
                            (Angstroem and degrees)

        Definition                    Value    dE/dq     Step     New-Value
    ----------------------------------------------------------------------------
     1. B(Cu  1,Cu  0)               11.0989 -0.002268  0.1588   11.2576   
    ----------------------------------------------------------------------------




    ----------------------------------------------------------------------------
                                  WARNING !!!
       The optimization did not converge but reached the maximum number of
       optimization cycles.
       Please check your results very carefully.
    ----------------------------------------------------------------------------



                            ***************************************
                            *     ORCA property calculations      *
                            ***************************************

                                    ---------------------
                                    Active property flags
                                    ---------------------
   (+) Dipole Moment


------------------------------------------------------------------------------
                       ORCA ELECTRIC PROPERTIES CALCULATION
------------------------------------------------------------------------------

Dipole Moment Calculation                       ... on
Quadrupole Moment Calculation                   ... off
Polarizability Calculation                      ... off
GBWName                                         ... cu2.gbw
Electron density                                ... cu2.scfp
The origin for moment calculation is the CENTER OF MASS  = ( 0.000000,  0.000000  0.094486)

-------------
DIPOLE MOMENT
-------------
                                X             Y             Z
Electronic contribution:      0.00000      -0.00000      -0.00000
Nuclear contribution   :      0.00000       0.00000      -0.00000
                        -----------------------------------------
Total Dipole Moment    :      0.00000      -0.00000      -0.00000
                        -----------------------------------------
Magnitude (a.u.)       :      0.00000
Magnitude (Debye)      :      0.00000



--------------------
Rotational spectrum 
--------------------
 
Rotational constants in cm-1:     0.000000     0.004186     0.004186 
Rotational constants in MHz :     0.000000   125.498457   125.498457 

 Dipole components along the rotational axes: 
x,y,z [a.u.] :    -0.000000    -0.000000     0.000000 
x,y,z [Debye]:    -0.000000    -0.000000     0.000000 

 

Timings for individual modules:

Sum of individual times         ...      241.307 sec (=   4.022 min)
GTO integral calculation        ...       54.690 sec (=   0.912 min)  22.7 %
SCF iterations                  ...      117.937 sec (=   1.966 min)  48.9 %
SCF Gradient evaluation         ...       68.095 sec (=   1.135 min)  28.2 %
Geometry relaxation             ...        0.585 sec (=   0.010 min)   0.2 %
                             ****ORCA TERMINATED NORMALLY****
TOTAL RUN TIME: 0 days 0 hours 4 minutes 48 seconds 43 msec
