
                                 *****************
                                 * O   R   C   A *
                                 *****************

                                            #,                                       
                                            ###                                      
                                            ####                                     
                                            #####                                    
                                            ######                                   
                                           ########,                                 
                                     ,,################,,,,,                         
                               ,,#################################,,                 
                          ,,##########################################,,             
                       ,#########################################, ''#####,          
                    ,#############################################,,   '####,        
                  ,##################################################,,,,####,       
                ,###########''''           ''''###############################       
              ,#####''   ,,,,##########,,,,          '''####'''          '####       
            ,##' ,,,,###########################,,,                        '##       
           ' ,,###''''                  '''############,,,                           
         ,,##''                                '''############,,,,        ,,,,,,###''
      ,#''                                            '''#######################'''  
     '                                                          ''''####''''         
             ,#######,   #######,   ,#######,      ##                                
            ,#'     '#,  ##    ##  ,#'     '#,    #''#        ######   ,####,        
            ##       ##  ##   ,#'  ##            #'  '#       #        #'  '#        
            ##       ##  #######   ##           ,######,      #####,   #    #        
            '#,     ,#'  ##    ##  '#,     ,#' ,#      #,         ##   #,  ,#        
             '#######'   ##     ##  '#######'  #'      '#     #####' # '####'        



                  #######################################################
                  #                        -***-                        #
                  #          Department of theory and spectroscopy      #
                  #    Directorship and core code : Frank Neese         #
                  #        Max Planck Institute fuer Kohlenforschung    #
                  #                Kaiser Wilhelm Platz 1               #
                  #                 D-45470 Muelheim/Ruhr               #
                  #                      Germany                        #
                  #                                                     #
                  #                  All rights reserved                #
                  #                        -***-                        #
                  #######################################################


                         Program Version 5.0.2 -  RELEASE  -


 With contributions from (in alphabetic order):
   Daniel Aravena         : Magnetic Suceptibility
   Michael Atanasov       : Ab Initio Ligand Field Theory (pilot matlab implementation)
   Alexander A. Auer      : GIAO ZORA, VPT2 properties, NMR spectrum
   Ute Becker             : Parallelization
   Giovanni Bistoni       : ED, misc. LED, open-shell LED, HFLD
   Martin Brehm           : Molecular dynamics
   Dmytro Bykov           : SCF Hessian
   Vijay G. Chilkuri      : MRCI spin determinant printing, contributions to CSF-ICE
   Dipayan Datta          : RHF DLPNO-CCSD density
   Achintya Kumar Dutta   : EOM-CC, STEOM-CC
   Dmitry Ganyushin       : Spin-Orbit,Spin-Spin,Magnetic field MRCI
   Miquel Garcia          : C-PCM and meta-GGA Hessian, CC/C-PCM, Gaussian charge scheme
   Yang Guo               : DLPNO-NEVPT2, F12-NEVPT2, CIM, IAO-localization
   Andreas Hansen         : Spin unrestricted coupled pair/coupled cluster methods
   Benjamin Helmich-Paris : MC-RPA, TRAH-SCF, COSX integrals
   Lee Huntington         : MR-EOM, pCC
   Robert Izsak           : Overlap fitted RIJCOSX, COSX-SCS-MP3, EOM
   Marcus Kettner         : VPT2
   Christian Kollmar      : KDIIS, OOCD, Brueckner-CCSD(T), CCSD density, CASPT2, CASPT2-K
   Simone Kossmann        : Meta GGA functionals, TD-DFT gradient, OOMP2, MP2 Hessian
   Martin Krupicka        : Initial AUTO-CI
   Lucas Lang             : DCDCAS
   Marvin Lechner         : AUTO-CI (C++ implementation), FIC-MRCC
   Dagmar Lenk            : GEPOL surface, SMD
   Dimitrios Liakos       : Extrapolation schemes; Compound Job, initial MDCI parallelization
   Dimitrios Manganas     : Further ROCIS development; embedding schemes
   Dimitrios Pantazis     : SARC Basis sets
   Anastasios Papadopoulos: AUTO-CI, single reference methods and gradients
   Taras Petrenko         : DFT Hessian,TD-DFT gradient, ASA, ECA, R-Raman, ABS, FL, XAS/XES, NRVS
   Peter Pinski           : DLPNO-MP2, DLPNO-MP2 Gradient
   Christoph Reimann      : Effective Core Potentials
   Marius Retegan         : Local ZFS, SOC
   Christoph Riplinger    : Optimizer, TS searches, QM/MM, DLPNO-CCSD(T), (RO)-DLPNO pert. Triples
   Tobias Risthaus        : Range-separated hybrids, TD-DFT gradient, RPA, STAB
   Michael Roemelt        : Original ROCIS implementation
   Masaaki Saitow         : Open-shell DLPNO-CCSD energy and density
   Barbara Sandhoefer     : DKH picture change effects
   Avijit Sen             : IP-ROCIS
   Kantharuban Sivalingam : CASSCF convergence, NEVPT2, FIC-MRCI
   Bernardo de Souza      : ESD, SOC TD-DFT
   Georgi Stoychev        : AutoAux, RI-MP2 NMR, DLPNO-MP2 response
   Willem Van den Heuvel  : Paramagnetic NMR
   Boris Wezisla          : Elementary symmetry handling
   Frank Wennmohs         : Technical directorship


 We gratefully acknowledge several colleagues who have allowed us to
 interface, adapt or use parts of their codes:
   Stefan Grimme, W. Hujo, H. Kruse, P. Pracht,  : VdW corrections, initial TS optimization,
                  C. Bannwarth, S. Ehlert          DFT functionals, gCP, sTDA/sTD-DF
   Ed Valeev, F. Pavosevic, A. Kumar             : LibInt (2-el integral package), F12 methods
   Garnet Chan, S. Sharma, J. Yang, R. Olivares  : DMRG
   Ulf Ekstrom                                   : XCFun DFT Library
   Mihaly Kallay                                 : mrcc  (arbitrary order and MRCC methods)
   Jiri Pittner, Ondrej Demel                    : Mk-CCSD
   Frank Weinhold                                : gennbo (NPA and NBO analysis)
   Christopher J. Cramer and Donald G. Truhlar   : smd solvation model
   Lars Goerigk                                  : TD-DFT with DH, B97 family of functionals
   V. Asgeirsson, H. Jonsson                     : NEB implementation
   FAccTs GmbH                                   : IRC, NEB, NEB-TS, DLPNO-Multilevel, CI-OPT
                                                   MM, QMMM, 2- and 3-layer-ONIOM, Crystal-QMMM,
                                                   LR-CPCM, SF, NACMEs, symmetry and pop. for TD-DFT,
                                                   nearIR, NL-DFT gradient (VV10), updates on ESD,
                                                   ML-optimized integration grids
   S Lehtola, MJT Oliveira, MAL Marques          : LibXC Library
   Liviu Ungur et al                             : ANISO software


 Your calculation uses the libint2 library for the computation of 2-el integrals
 For citations please refer to: http://libint.valeyev.net

 Your ORCA version has been built with support for libXC version: 5.1.0
 For citations please refer to: https://tddft.org/programs/libxc/

 This ORCA versions uses:
   CBLAS   interface :  Fast vector & matrix operations
   LAPACKE interface :  Fast linear algebra routines
   SCALAPACK package :  Parallel linear algebra routines
   Shared memory     :  Shared parallel matrices
   BLAS/LAPACK       :  OpenBLAS 0.3.15  USE64BITINT DYNAMIC_ARCH NO_AFFINITY Haswell SINGLE_THREADED
        Core in use  :  Haswell
   Copyright (c) 2011-2014, The OpenBLAS Project


Your calculation utilizes the atom-pairwise dispersion correction
with the Becke-Johnson damping scheme (D3BJ)
Cite in your paper:
S.Grimme, S.Ehrlich, L.Goerigk, J Comput Chem, (2011), 32, 1456–1465 
S.Grimme, J.Antony, S.Ehrlich and H.Krieg, J.Chem.Phys., 132, (2010), 154104 
   

================================================================================

----- Orbital basis set information -----
Your calculation utilizes the basis: def2-TZVP
   F. Weigend and R. Ahlrichs, Phys. Chem. Chem. Phys. 7, 3297 (2005).

----- AuxJ basis set information -----
Your calculation utilizes the auxiliary basis: def2/J
   F. Weigend, Phys. Chem. Chem. Phys. 8, 1057 (2006).

================================================================================
                                        WARNINGS
                       Please study these warnings very carefully!
================================================================================

WARNING: Old DensityContainer found on disk!
         Will remove this file - 
         If you want to keep old densities, please start your calculation with a different basename. 


WARNING: The environment variable RSH_COMMAND is not set!
  ===> : All Displacements for the Numerical Hessian or Gradient calculation
         will be started on localhost

INFO   : the flag for use of the SHARK integral package has been found!

================================================================================
                                       INPUT FILE
================================================================================
NAME = ex.inp
|  1> ! B3LYP D3 TightSCF def2-TZVP slowconv PModel cpcm(water) opt numfreq
|  2> %pal nprocs=16 end
|  3> %geom maxiter=150 end
|  4> %elprop Polar 1 end
|  5> %base "cu8"
|  6> *xyz 0 1
|  7>   Cu     0.000000000000    1.843511000000    0.587365000000
|  8>   Cu    -1.459876000000   -0.000000000000    2.139021000000
|  9>   Cu     1.854191000000    0.000000000000   -0.594171000000
| 10>   Cu    -0.000000000000    1.460941000000   -2.132216000000
| 11>   Cu     0.000000000000   -1.843511000000    0.587365000000
| 12>   Cu    -1.854191000000    0.000000000000   -0.594171000000
| 13>   Cu    -0.000000000000   -1.460941000000   -2.132216000000
| 14>   Cu     1.459876000000    0.000000000000    2.139021000000
| 15> *
| 16> 
| 17>                          ****END OF INPUT****
================================================================================

                       *****************************
                       * Geometry Optimization Run *
                       *****************************

Geometry optimization settings:
Update method            Update   .... BFGS
Choice of coordinates    CoordSys .... Z-matrix Internals
Initial Hessian          InHess   .... Almoef's Model

Convergence Tolerances:
Energy Change            TolE     ....  5.0000e-06 Eh
Max. Gradient            TolMAXG  ....  3.0000e-04 Eh/bohr
RMS Gradient             TolRMSG  ....  1.0000e-04 Eh/bohr
Max. Displacement        TolMAXD  ....  4.0000e-03 bohr
RMS Displacement         TolRMSD  ....  2.0000e-03 bohr
Strict Convergence                ....  False
------------------------------------------------------------------------------
                        ORCA OPTIMIZATION COORDINATE SETUP
------------------------------------------------------------------------------

The optimization will be done in new redundant internal coordinates
Making redundant internal coordinates   ...  (new redundants) done
Evaluating the initial hessian          ...  (Almloef) done
Evaluating the coordinates              ...  done
Calculating the B-matrix                .... done
Calculating the G-matrix                .... done
Diagonalizing the G-matrix              .... done
The first mode is                       ....  254
The number of degrees of freedom        ....   18

    -----------------------------------------------------------------
                    Redundant Internal Coordinates


    -----------------------------------------------------------------
         Definition                    Initial Value    Approx d2E/dq
    -----------------------------------------------------------------
      1. B(Cu  1,Cu  0)                  2.8173         0.337876   
      2. B(Cu  2,Cu  0)                  2.8692         0.279217   
      3. B(Cu  3,Cu  0)                  2.7464         0.438537   
      4. B(Cu  3,Cu  2)                  2.8174         0.337755   
      5. B(Cu  4,Cu  2)                  2.8692         0.279217   
      6. B(Cu  4,Cu  1)                  2.8173         0.337876   
      7. B(Cu  5,Cu  4)                  2.8692         0.279217   
      8. B(Cu  5,Cu  3)                  2.8174         0.337755   
      9. B(Cu  5,Cu  1)                  2.7615         0.414825   
     10. B(Cu  5,Cu  0)                  2.8692         0.279217   
     11. B(Cu  6,Cu  5)                  2.8174         0.337755   
     12. B(Cu  6,Cu  4)                  2.7464         0.438537   
     13. B(Cu  6,Cu  3)                  2.9219         0.230127   
     14. B(Cu  6,Cu  2)                  2.8174         0.337755   
     15. B(Cu  7,Cu  0)                  2.8173         0.337876   
     16. B(Cu  7,Cu  4)                  2.8173         0.337876   
     17. B(Cu  7,Cu  2)                  2.7615         0.414825   
     18. B(Cu  7,Cu  1)                  2.9198         0.231935   
     19. A(Cu  3,Cu  0,Cu  7)          117.0155         0.548504   
     20. A(Cu  3,Cu  0,Cu  5)           60.1798         0.529094   
     21. A(Cu  1,Cu  0,Cu  3)          117.0155         0.548504   
     22. A(Cu  2,Cu  0,Cu  7)           58.0969         0.503871   
     23. A(Cu  5,Cu  0,Cu  7)           98.1193         0.503871   
     24. A(Cu  1,Cu  0,Cu  2)           98.1193         0.503871   
     25. A(Cu  1,Cu  0,Cu  7)           62.4199         0.522169   
     26. A(Cu  1,Cu  0,Cu  5)           58.0969         0.503871   
     27. A(Cu  2,Cu  0,Cu  5)           80.5158         0.486346   
     28. A(Cu  2,Cu  0,Cu  3)           60.1798         0.529094   
     29. A(Cu  0,Cu  1,Cu  5)           61.8931         0.542759   
     30. A(Cu  0,Cu  1,Cu  4)           81.7399         0.522169   
     31. A(Cu  0,Cu  1,Cu  7)           58.7901         0.486810   
     32. A(Cu  4,Cu  1,Cu  7)           58.7901         0.486810   
     33. A(Cu  5,Cu  1,Cu  7)           98.2094         0.505719   
     34. A(Cu  4,Cu  1,Cu  5)           61.8931         0.542759   
     35. A(Cu  3,Cu  2,Cu  6)           62.4681         0.522099   
     36. A(Cu  0,Cu  2,Cu  6)           97.6239         0.503837   
     37. A(Cu  4,Cu  2,Cu  7)           60.0100         0.523591   
     38. A(Cu  0,Cu  2,Cu  4)           79.9580         0.486346   
     39. A(Cu  3,Cu  2,Cu  7)          116.5088         0.542722   
     40. A(Cu  6,Cu  2,Cu  7)          116.5088         0.542722   
     41. A(Cu  3,Cu  2,Cu  4)           97.6239         0.503837   
     42. A(Cu  0,Cu  2,Cu  3)           57.7472         0.503837   
     43. A(Cu  0,Cu  2,Cu  7)           60.0100         0.523591   
     44. A(Cu  4,Cu  2,Cu  6)           57.7472         0.503837   
     45. A(Cu  5,Cu  3,Cu  6)           58.7659         0.486074   
     46. A(Cu  0,Cu  3,Cu  6)           98.0074         0.510249   
     47. A(Cu  2,Cu  3,Cu  6)           58.7659         0.486074   
     48. A(Cu  2,Cu  3,Cu  5)           82.3122         0.522099   
     49. A(Cu  0,Cu  3,Cu  5)           62.0729         0.548467   
     50. A(Cu  0,Cu  3,Cu  2)           62.0729         0.548467   
     51. A(Cu  6,Cu  4,Cu  7)          117.0155         0.548504   
     52. A(Cu  5,Cu  4,Cu  7)           98.1193         0.503871   
     53. A(Cu  2,Cu  4,Cu  7)           58.0969         0.503871   
     54. A(Cu  1,Cu  4,Cu  7)           62.4199         0.522169   
     55. A(Cu  2,Cu  4,Cu  5)           80.5158         0.486346   
     56. A(Cu  1,Cu  4,Cu  5)           58.0969         0.503871   
     57. A(Cu  1,Cu  4,Cu  2)           98.1193         0.503871   
     58. A(Cu  5,Cu  4,Cu  6)           60.1798         0.529094   
     59. A(Cu  2,Cu  4,Cu  6)           60.1798         0.529094   
     60. A(Cu  1,Cu  4,Cu  6)          117.0155         0.548504   
     61. A(Cu  0,Cu  5,Cu  1)           60.0100         0.523591   
     62. A(Cu  3,Cu  5,Cu  4)           97.6239         0.503837   
     63. A(Cu  1,Cu  5,Cu  4)           60.0100         0.523591   
     64. A(Cu  0,Cu  5,Cu  4)           79.9580         0.486346   
     65. A(Cu  4,Cu  5,Cu  6)           57.7472         0.503837   
     66. A(Cu  3,Cu  5,Cu  6)           62.4681         0.522099   
     67. A(Cu  1,Cu  5,Cu  6)          116.5088         0.542722   
     68. A(Cu  1,Cu  5,Cu  3)          116.5088         0.542722   
     69. A(Cu  0,Cu  5,Cu  6)           97.6239         0.503837   
     70. A(Cu  0,Cu  5,Cu  3)           57.7472         0.503837   
     71. A(Cu  2,Cu  6,Cu  3)           58.7659         0.486074   
     72. A(Cu  4,Cu  6,Cu  5)           62.0729         0.548467   
     73. A(Cu  3,Cu  6,Cu  5)           58.7659         0.486074   
     74. A(Cu  2,Cu  6,Cu  5)           82.3122         0.522099   
     75. A(Cu  3,Cu  6,Cu  4)           98.0074         0.510249   
     76. A(Cu  2,Cu  6,Cu  4)           62.0729         0.548467   
     77. A(Cu  1,Cu  7,Cu  4)           58.7901         0.486810   
     78. A(Cu  0,Cu  7,Cu  4)           81.7399         0.522169   
     79. A(Cu  1,Cu  7,Cu  2)           98.2094         0.505719   
     80. A(Cu  0,Cu  7,Cu  2)           61.8931         0.542759   
     81. A(Cu  0,Cu  7,Cu  1)           58.7901         0.486810   
     82. A(Cu  2,Cu  7,Cu  4)           61.8931         0.542759   
     83. D(Cu  4,Cu  1,Cu  0,Cu  5)     62.4730         0.001571   
     84. D(Cu  5,Cu  1,Cu  0,Cu  7)   -120.8549         0.001571   
     85. D(Cu  7,Cu  1,Cu  0,Cu  3)    107.9934         0.001571   
     86. D(Cu  7,Cu  1,Cu  0,Cu  5)    120.8549         0.001571   
     87. D(Cu  5,Cu  1,Cu  0,Cu  3)    -12.8616         0.001571   
     88. D(Cu  7,Cu  1,Cu  0,Cu  2)     47.4062         0.001571   
     89. D(Cu  4,Cu  1,Cu  0,Cu  2)    -10.9757         0.001571   
     90. D(Cu  4,Cu  1,Cu  0,Cu  3)     49.6115         0.001571   
     91. D(Cu  4,Cu  1,Cu  0,Cu  7)    -58.3819         0.001571   
     92. D(Cu  5,Cu  1,Cu  0,Cu  2)    -73.4487         0.001571   
     93. D(Cu  4,Cu  2,Cu  0,Cu  5)    -44.7635         0.001553   
     94. D(Cu  6,Cu  2,Cu  0,Cu  3)    -50.5120         0.001553   
     95. D(Cu  6,Cu  2,Cu  0,Cu  1)     66.0448         0.001553   
     96. D(Cu  6,Cu  2,Cu  0,Cu  5)     10.4518         0.001553   
     97. D(Cu  4,Cu  2,Cu  0,Cu  1)     10.8295         0.001553   
     98. D(Cu  3,Cu  2,Cu  0,Cu  1)    116.5568         0.001553   
     99. D(Cu  7,Cu  2,Cu  0,Cu  3)   -166.7870         0.001553   
    100. D(Cu  6,Cu  2,Cu  0,Cu  7)    116.2750         0.001553   
    101. D(Cu  7,Cu  2,Cu  0,Cu  1)    -50.2302         0.001553   
    102. D(Cu  3,Cu  2,Cu  0,Cu  7)    166.7870         0.001553   
    103. D(Cu  7,Cu  2,Cu  0,Cu  5)   -105.8232         0.001553   
    104. D(Cu  4,Cu  2,Cu  0,Cu  3)   -105.7273         0.001553   
    105. D(Cu  4,Cu  2,Cu  0,Cu  7)     61.0597         0.001553   
    106. D(Cu  3,Cu  2,Cu  0,Cu  5)     60.9638         0.001553   
    107. D(Cu  5,Cu  3,Cu  2,Cu  6)     57.9897         0.001571   
    108. D(Cu  2,Cu  3,Cu  0,Cu  7)    -12.5805         0.001615   
    109. D(Cu  5,Cu  3,Cu  2,Cu  4)     10.5953         0.001571   
    110. D(Cu  5,Cu  3,Cu  2,Cu  7)    -49.6166         0.001571   
    111. D(Cu  6,Cu  3,Cu  2,Cu  0)   -120.3874         0.001571   
    112. D(Cu  2,Cu  3,Cu  0,Cu  1)    -83.7127         0.001615   
    113. D(Cu  6,Cu  3,Cu  2,Cu  7)   -107.6062         0.001571   
    114. D(Cu  5,Cu  3,Cu  0,Cu  2)     96.2933         0.001615   
    115. D(Cu  6,Cu  3,Cu  0,Cu  1)    -35.5661         0.001615   
    116. D(Cu  6,Cu  3,Cu  0,Cu  7)     35.5661         0.001615   
    117. D(Cu  0,Cu  3,Cu  2,Cu  4)     72.9931         0.001571   
    118. D(Cu  5,Cu  3,Cu  0,Cu  7)     83.7127         0.001615   
    119. D(Cu  2,Cu  3,Cu  0,Cu  5)    -96.2933         0.001615   
    120. D(Cu  0,Cu  3,Cu  2,Cu  6)    120.3874         0.001571   
    121. D(Cu  6,Cu  3,Cu  0,Cu  5)    -48.1466         0.001615   
    122. D(Cu  6,Cu  3,Cu  0,Cu  2)     48.1466         0.001615   
    123. D(Cu  0,Cu  3,Cu  2,Cu  7)     12.7812         0.001571   
    124. D(Cu  6,Cu  3,Cu  2,Cu  4)    -47.3943         0.001571   
    125. D(Cu  5,Cu  3,Cu  0,Cu  1)     12.5805         0.001615   
    126. D(Cu  5,Cu  3,Cu  2,Cu  0)    -62.3978         0.001571   
    127. D(Cu  6,Cu  4,Cu  2,Cu  0)    105.7273         0.001553   
    128. D(Cu  5,Cu  4,Cu  2,Cu  3)    -10.4518         0.001553   
    129. D(Cu  5,Cu  4,Cu  2,Cu  7)    105.8232         0.001553   
    130. D(Cu  5,Cu  4,Cu  2,Cu  0)     44.7635         0.001553   
    131. D(Cu  1,Cu  4,Cu  2,Cu  7)     50.2302         0.001553   
    132. D(Cu  1,Cu  4,Cu  2,Cu  3)    -66.0448         0.001553   
    133. D(Cu  7,Cu  4,Cu  1,Cu  5)    120.8549         0.001571   
    134. D(Cu  6,Cu  4,Cu  1,Cu  7)   -107.9934         0.001571   
    135. D(Cu  5,Cu  4,Cu  1,Cu  7)   -120.8549         0.001571   
    136. D(Cu  5,Cu  4,Cu  1,Cu  0)    -62.4730         0.001571   
    137. D(Cu  2,Cu  4,Cu  1,Cu  0)     10.9757         0.001571   
    138. D(Cu  6,Cu  4,Cu  1,Cu  0)    -49.6115         0.001571   
    139. D(Cu  2,Cu  4,Cu  1,Cu  5)     73.4487         0.001571   
    140. D(Cu  7,Cu  4,Cu  1,Cu  0)     58.3819         0.001571   
    141. D(Cu  1,Cu  4,Cu  2,Cu  0)    -10.8295         0.001553   
    142. D(Cu  5,Cu  4,Cu  2,Cu  6)    -60.9638         0.001553   
    143. D(Cu  7,Cu  4,Cu  2,Cu  3)   -116.2750         0.001553   
    144. D(Cu  7,Cu  4,Cu  2,Cu  6)   -166.7870         0.001553   
    145. D(Cu  1,Cu  4,Cu  2,Cu  6)   -116.5568         0.001553   
    146. D(Cu  2,Cu  4,Cu  1,Cu  7)    -47.4062         0.001571   
    147. D(Cu  7,Cu  4,Cu  2,Cu  0)    -61.0597         0.001553   
    148. D(Cu  6,Cu  4,Cu  2,Cu  7)    166.7870         0.001553   
    149. D(Cu  6,Cu  4,Cu  2,Cu  3)     50.5120         0.001553   
    150. D(Cu  6,Cu  4,Cu  1,Cu  5)     12.8616         0.001571   
    151. D(Cu  6,Cu  5,Cu  4,Cu  7)    116.5568         0.001553   
    152. D(Cu  6,Cu  5,Cu  4,Cu  2)     60.9638         0.001553   
    153. D(Cu  6,Cu  5,Cu  4,Cu  1)    166.7870         0.001553   
    154. D(Cu  3,Cu  5,Cu  4,Cu  7)     66.0448         0.001553   
    155. D(Cu  3,Cu  5,Cu  4,Cu  6)    -50.5120         0.001553   
    156. D(Cu  3,Cu  5,Cu  4,Cu  1)    116.2750         0.001553   
    157. D(Cu  1,Cu  5,Cu  4,Cu  7)    -50.2302         0.001553   
    158. D(Cu  1,Cu  5,Cu  4,Cu  6)   -166.7870         0.001553   
    159. D(Cu  0,Cu  5,Cu  4,Cu  7)     10.8295         0.001553   
    160. D(Cu  0,Cu  5,Cu  4,Cu  6)   -105.7273         0.001553   
    161. D(Cu  0,Cu  5,Cu  4,Cu  2)    -44.7635         0.001553   
    162. D(Cu  6,Cu  5,Cu  3,Cu  2)    -57.9897         0.001571   
    163. D(Cu  6,Cu  5,Cu  3,Cu  0)   -120.3874         0.001571   
    164. D(Cu  4,Cu  5,Cu  3,Cu  6)     47.3943         0.001571   
    165. D(Cu  4,Cu  5,Cu  3,Cu  2)    -10.5953         0.001571   
    166. D(Cu  4,Cu  5,Cu  3,Cu  0)    -72.9931         0.001571   
    167. D(Cu  1,Cu  5,Cu  3,Cu  6)    107.6062         0.001571   
    168. D(Cu  1,Cu  5,Cu  3,Cu  2)     49.6166         0.001571   
    169. D(Cu  6,Cu  5,Cu  1,Cu  7)     35.4123         0.001604   
    170. D(Cu  6,Cu  5,Cu  1,Cu  4)    -12.4751         0.001604   
    171. D(Cu  4,Cu  5,Cu  1,Cu  0)     95.7747         0.001604   
    172. D(Cu  3,Cu  5,Cu  1,Cu  7)    -35.4123         0.001604   
    173. D(Cu  3,Cu  5,Cu  1,Cu  4)    -83.2997         0.001604   
    174. D(Cu  3,Cu  5,Cu  1,Cu  0)     12.4751         0.001604   
    175. D(Cu  0,Cu  5,Cu  1,Cu  7)    -47.8874         0.001604   
    176. D(Cu  4,Cu  5,Cu  1,Cu  7)     47.8874         0.001604   
    177. D(Cu  0,Cu  5,Cu  1,Cu  4)    -95.7747         0.001604   
    178. D(Cu  6,Cu  5,Cu  0,Cu  7)    -66.0448         0.001553   
    179. D(Cu  6,Cu  5,Cu  1,Cu  0)     83.2997         0.001604   
    180. D(Cu  6,Cu  5,Cu  0,Cu  3)     50.5120         0.001553   
    181. D(Cu  6,Cu  5,Cu  0,Cu  2)    -10.4518         0.001553   
    182. D(Cu  6,Cu  5,Cu  0,Cu  1)   -116.2750         0.001553   
    183. D(Cu  4,Cu  5,Cu  0,Cu  7)    -10.8295         0.001553   
    184. D(Cu  0,Cu  5,Cu  4,Cu  1)     61.0597         0.001553   
    185. D(Cu  1,Cu  5,Cu  3,Cu  0)    -12.7812         0.001571   
    186. D(Cu  4,Cu  5,Cu  0,Cu  3)    105.7273         0.001553   
    187. D(Cu  4,Cu  5,Cu  0,Cu  2)     44.7635         0.001553   
    188. D(Cu  1,Cu  5,Cu  4,Cu  2)   -105.8232         0.001553   
    189. D(Cu  3,Cu  5,Cu  0,Cu  7)   -116.5568         0.001553   
    190. D(Cu  3,Cu  5,Cu  0,Cu  1)   -166.7870         0.001553   
    191. D(Cu  1,Cu  5,Cu  0,Cu  7)     50.2302         0.001553   
    192. D(Cu  3,Cu  5,Cu  4,Cu  2)     10.4518         0.001553   
    193. D(Cu  1,Cu  5,Cu  0,Cu  3)    166.7870         0.001553   
    194. D(Cu  1,Cu  5,Cu  0,Cu  2)    105.8232         0.001553   
    195. D(Cu  0,Cu  5,Cu  3,Cu  6)    120.3874         0.001571   
    196. D(Cu  3,Cu  5,Cu  0,Cu  2)    -60.9638         0.001553   
    197. D(Cu  4,Cu  5,Cu  0,Cu  1)    -61.0597         0.001553   
    198. D(Cu  0,Cu  5,Cu  3,Cu  2)     62.3978         0.001571   
    199. D(Cu  5,Cu  6,Cu  2,Cu  7)     49.6166         0.001571   
    200. D(Cu  5,Cu  6,Cu  2,Cu  4)     62.3978         0.001571   
    201. D(Cu  5,Cu  6,Cu  2,Cu  3)    -57.9897         0.001571   
    202. D(Cu  5,Cu  6,Cu  2,Cu  0)    -10.5953         0.001571   
    203. D(Cu  4,Cu  6,Cu  2,Cu  7)    -12.7812         0.001571   
    204. D(Cu  4,Cu  6,Cu  2,Cu  3)   -120.3874         0.001571   
    205. D(Cu  4,Cu  6,Cu  2,Cu  0)    -72.9931         0.001571   
    206. D(Cu  3,Cu  6,Cu  2,Cu  7)    107.6062         0.001571   
    207. D(Cu  3,Cu  6,Cu  2,Cu  4)    120.3874         0.001571   
    208. D(Cu  2,Cu  6,Cu  3,Cu  0)    -50.3244         0.001533   
    209. D(Cu  3,Cu  6,Cu  2,Cu  0)     47.3943         0.001571   
    210. D(Cu  4,Cu  6,Cu  5,Cu  3)    120.3874         0.001571   
    211. D(Cu  4,Cu  6,Cu  5,Cu  1)     12.7812         0.001571   
    212. D(Cu  3,Cu  6,Cu  5,Cu  4)   -120.3874         0.001571   
    213. D(Cu  3,Cu  6,Cu  5,Cu  1)   -107.6062         0.001571   
    214. D(Cu  3,Cu  6,Cu  5,Cu  0)    -47.3943         0.001571   
    215. D(Cu  2,Cu  6,Cu  5,Cu  4)    -62.3978         0.001571   
    216. D(Cu  2,Cu  6,Cu  5,Cu  3)     57.9897         0.001571   
    217. D(Cu  2,Cu  6,Cu  5,Cu  1)    -49.6166         0.001571   
    218. D(Cu  2,Cu  6,Cu  5,Cu  0)     10.5953         0.001571   
    219. D(Cu  5,Cu  6,Cu  4,Cu  7)    -83.7127         0.001615   
    220. D(Cu  5,Cu  6,Cu  4,Cu  2)    -96.2933         0.001615   
    221. D(Cu  5,Cu  6,Cu  4,Cu  1)    -12.5805         0.001615   
    222. D(Cu  3,Cu  6,Cu  4,Cu  7)    -35.5661         0.001615   
    223. D(Cu  3,Cu  6,Cu  4,Cu  5)     48.1466         0.001615   
    224. D(Cu  3,Cu  6,Cu  4,Cu  2)    -48.1466         0.001615   
    225. D(Cu  3,Cu  6,Cu  4,Cu  1)     35.5661         0.001615   
    226. D(Cu  2,Cu  6,Cu  4,Cu  7)     12.5805         0.001615   
    227. D(Cu  2,Cu  6,Cu  4,Cu  5)     96.2933         0.001615   
    228. D(Cu  2,Cu  6,Cu  4,Cu  1)     83.7127         0.001615   
    229. D(Cu  5,Cu  6,Cu  3,Cu  2)    100.6488         0.001533   
    230. D(Cu  5,Cu  6,Cu  3,Cu  0)     50.3244         0.001533   
    231. D(Cu  4,Cu  6,Cu  3,Cu  5)    -50.3244         0.001533   
    232. D(Cu  4,Cu  6,Cu  5,Cu  0)     72.9931         0.001571   
    233. D(Cu  4,Cu  6,Cu  3,Cu  2)     50.3244         0.001533   
    234. D(Cu  4,Cu  6,Cu  3,Cu  0)      0.0000         0.001533   
    235. D(Cu  2,Cu  6,Cu  3,Cu  5)   -100.6488         0.001533   
    236. D(Cu  2,Cu  7,Cu  4,Cu  6)    -12.8616         0.001571   
    237. D(Cu  2,Cu  7,Cu  4,Cu  5)    -73.4487         0.001571   
    238. D(Cu  2,Cu  7,Cu  4,Cu  1)   -120.8549         0.001571   
    239. D(Cu  1,Cu  7,Cu  4,Cu  5)     47.4062         0.001571   
    240. D(Cu  1,Cu  7,Cu  4,Cu  2)    120.8549         0.001571   
    241. D(Cu  0,Cu  7,Cu  4,Cu  6)     49.6115         0.001571   
    242. D(Cu  0,Cu  7,Cu  4,Cu  2)     62.4730         0.001571   
    243. D(Cu  0,Cu  7,Cu  4,Cu  1)    -58.3819         0.001571   
    244. D(Cu  4,Cu  7,Cu  2,Cu  6)     12.4751         0.001604   
    245. D(Cu  4,Cu  7,Cu  2,Cu  3)     83.2997         0.001604   
    246. D(Cu  4,Cu  7,Cu  2,Cu  0)     95.7747         0.001604   
    247. D(Cu  1,Cu  7,Cu  2,Cu  6)    -35.4123         0.001604   
    248. D(Cu  1,Cu  7,Cu  2,Cu  4)    -47.8874         0.001604   
    249. D(Cu  1,Cu  7,Cu  2,Cu  0)     47.8874         0.001604   
    250. D(Cu  0,Cu  7,Cu  2,Cu  6)    -83.2997         0.001604   
    251. D(Cu  0,Cu  7,Cu  2,Cu  4)    -95.7747         0.001604   
    252. D(Cu  0,Cu  7,Cu  2,Cu  3)    -12.4751         0.001604   
    253. D(Cu  4,Cu  7,Cu  1,Cu  5)    -49.9132         0.001533   
    254. D(Cu  4,Cu  7,Cu  1,Cu  0)    -99.8264         0.001533   
    255. D(Cu  2,Cu  7,Cu  1,Cu  5)      0.0000         0.001533   
    256. D(Cu  1,Cu  7,Cu  2,Cu  3)     35.4123         0.001604   
    257. D(Cu  2,Cu  7,Cu  1,Cu  4)     49.9132         0.001533   
    258. D(Cu  2,Cu  7,Cu  1,Cu  0)    -49.9132         0.001533   
    259. D(Cu  0,Cu  7,Cu  1,Cu  5)     49.9132         0.001533   
    260. D(Cu  0,Cu  7,Cu  1,Cu  4)     99.8264         0.001533   
    261. D(Cu  4,Cu  7,Cu  0,Cu  5)     10.9757         0.001571   
    262. D(Cu  4,Cu  7,Cu  0,Cu  3)    -49.6115         0.001571   
    263. D(Cu  4,Cu  7,Cu  0,Cu  2)    -62.4730         0.001571   
    264. D(Cu  0,Cu  7,Cu  4,Cu  5)    -10.9757         0.001571   
    265. D(Cu  4,Cu  7,Cu  0,Cu  1)     58.3819         0.001571   
    266. D(Cu  2,Cu  7,Cu  0,Cu  5)     73.4487         0.001571   
    267. D(Cu  2,Cu  7,Cu  0,Cu  3)     12.8616         0.001571   
    268. D(Cu  1,Cu  7,Cu  4,Cu  6)    107.9934         0.001571   
    269. D(Cu  2,Cu  7,Cu  0,Cu  1)    120.8549         0.001571   
    270. D(Cu  1,Cu  7,Cu  0,Cu  5)    -47.4062         0.001571   
    271. D(Cu  1,Cu  7,Cu  0,Cu  3)   -107.9934         0.001571   
    272. D(Cu  1,Cu  7,Cu  0,Cu  2)   -120.8549         0.001571   
    -----------------------------------------------------------------

Number of atoms                         .... 8
Number of degrees of freedom            .... 272

         *************************************************************
         *                GEOMETRY OPTIMIZATION CYCLE   1            *
         *************************************************************
---------------------------------
CARTESIAN COORDINATES (ANGSTROEM)
---------------------------------
  Cu     0.000000    1.843511    0.587365
  Cu    -1.459876   -0.000000    2.139021
  Cu     1.854191    0.000000   -0.594171
  Cu    -0.000000    1.460941   -2.132216
  Cu     0.000000   -1.843511    0.587365
  Cu    -1.854191    0.000000   -0.594171
  Cu    -0.000000   -1.460941   -2.132216
  Cu     1.459876    0.000000    2.139021

----------------------------
CARTESIAN COORDINATES (A.U.)
----------------------------
  NO LB      ZA    FRAG     MASS         X           Y           Z
   0 Cu   29.0000    0    63.550    0.000000    3.483731    1.109959
   1 Cu   29.0000    0    63.550   -2.758766   -0.000000    4.042164
   2 Cu   29.0000    0    63.550    3.503913    0.000000   -1.122820
   3 Cu   29.0000    0    63.550   -0.000000    2.760778   -4.029304
   4 Cu   29.0000    0    63.550    0.000000   -3.483731    1.109959
   5 Cu   29.0000    0    63.550   -3.503913    0.000000   -1.122820
   6 Cu   29.0000    0    63.550   -0.000000   -2.760778   -4.029304
   7 Cu   29.0000    0    63.550    2.758766    0.000000    4.042164

--------------------------------
INTERNAL COORDINATES (ANGSTROEM)
--------------------------------
 Cu     0   0   0     0.000000000000     0.00000000     0.00000000
 Cu     1   0   0     2.817340427572     0.00000000     0.00000000
 Cu     1   2   0     2.869248053218    98.11931277     0.00000000
 Cu     1   2   3     2.746357700749   117.01550015    60.58717085
 Cu     2   1   3     2.817340427572    81.73991881   349.02430793
 Cu     2   1   3     2.761489240987    61.89311820   286.55127286
 Cu     5   2   1     2.746357700749   117.01550015   310.38852122
 Cu     3   1   2     2.761489240987    60.01000890   309.76983437

---------------------------
INTERNAL COORDINATES (A.U.)
---------------------------
 Cu     0   0   0     0.000000000000     0.00000000     0.00000000
 Cu     1   0   0     5.324001834136     0.00000000     0.00000000
 Cu     1   2   0     5.422093030870    98.11931277     0.00000000
 Cu     1   2   3     5.189863920200   117.01550015    60.58717085
 Cu     2   1   3     5.324001834136    81.73991881   349.02430793
 Cu     2   1   3     5.218458387236    61.89311820   286.55127286
 Cu     5   2   1     5.189863920200   117.01550015   310.38852122
 Cu     3   1   2     5.218458387236    60.01000890   309.76983437

---------------------
BASIS SET INFORMATION
---------------------
There are 1 groups of distinct atoms

 Group   1 Type Cu  : 17s11p7d1f contracted to 6s4p4d1f pattern {842111/6311/4111/1}

Atom   0Cu   basis set group =>   1
Atom   1Cu   basis set group =>   1
Atom   2Cu   basis set group =>   1
Atom   3Cu   basis set group =>   1
Atom   4Cu   basis set group =>   1
Atom   5Cu   basis set group =>   1
Atom   6Cu   basis set group =>   1
Atom   7Cu   basis set group =>   1
---------------------------------
AUXILIARY/J BASIS SET INFORMATION
---------------------------------
There are 1 groups of distinct atoms

 Group   1 Type Cu  : 19s5p5d3f3g contracted to 8s5p4d3f3g pattern {121111111/11111/2111/111/111}

Atom   0Cu   basis set group =>   1
Atom   1Cu   basis set group =>   1
Atom   2Cu   basis set group =>   1
Atom   3Cu   basis set group =>   1
Atom   4Cu   basis set group =>   1
Atom   5Cu   basis set group =>   1
Atom   6Cu   basis set group =>   1
Atom   7Cu   basis set group =>   1


           ************************************************************
           *        Program running with 16 parallel MPI-processes    *
           *              working on a common directory               *
           ************************************************************
------------------------------------------------------------------------------
                           ORCA GTO INTEGRAL CALCULATION
                           -- RI-GTO INTEGRALS CHOSEN --
------------------------------------------------------------------------------
------------------------------------------------------------------------------
                   ___                                                        
                  /   \      - P O W E R E D   B Y -                         
                 /     \                                                     
                 |  |  |   _    _      __       _____    __    __             
                 |  |  |  | |  | |    /  \     |  _  \  |  |  /  |          
                  \  \/   | |  | |   /    \    | | | |  |  | /  /          
                 / \  \   | |__| |  /  /\  \   | |_| |  |  |/  /          
                |  |  |   |  __  | /  /__\  \  |    /   |      \           
                |  |  |   | |  | | |   __   |  |    \   |  |\   \          
                \     /   | |  | | |  |  |  |  | |\  \  |  | \   \       
                 \___/    |_|  |_| |__|  |__|  |_| \__\ |__|  \__/        
                                                                              
                      - O R C A' S   B I G   F R I E N D -                    
                                      &                                       
                       - I N T E G R A L  F E E D E R -                       
                                                                              
 v1 FN, 2020, v2 2021                                                         
------------------------------------------------------------------------------


Reading SHARK input file cu8.SHARKINP.tmp ... ok
----------------------
SHARK INTEGRAL PACKAGE
----------------------

Number of atoms                             ...      8
Number of basis functions                   ...    360
Number of shells                            ...    120
Maximum angular momentum                    ...      3
Integral batch strategy                     ... SHARK/LIBINT Hybrid
RI-J (if used) integral strategy            ... SPLIT-RIJ (Revised 2003 algorithm where possible)
Printlevel                                  ...      1
Contraction scheme used                     ... SEGMENTED contraction
Coulomb Range Separation                    ... NOT USED
Exchange Range Separation                   ... NOT USED
Finite Nucleus Model                        ... NOT USED
Auxiliary Coulomb fitting basis             ... AVAILABLE
   # of basis functions in Aux-J            ...    728
   # of shells in Aux-J                     ...    184
   Maximum angular momentum in Aux-J        ...      4
Auxiliary J/K fitting basis                 ... NOT available
Auxiliary Correlation fitting basis         ... NOT available
Auxiliary 'external' fitting basis          ... NOT available
Integral threshold                          ...     2.500000e-11
Primitive cut-off                           ...     2.500000e-12
Primitive pair pre-selection threshold      ...     2.500000e-12

Calculating pre-screening integrals         ... done (  0.1 sec) Dimension = 120
Organizing shell pair data                  ... done (  0.4 sec)
Shell pair information
Total number of shell pairs                 ...      7260
Shell pairs after pre-screening             ...      5510
Total number of primitive shell pairs       ...     42088
Primitive shell pairs kept                  ...     18292
          la=0 lb=0:    828 shell pairs
          la=1 lb=0:   1100 shell pairs
          la=1 lb=1:    392 shell pairs
          la=2 lb=0:   1272 shell pairs
          la=2 lb=1:    856 shell pairs
          la=2 lb=2:    476 shell pairs
          la=3 lb=0:    204 shell pairs
          la=3 lb=1:    164 shell pairs
          la=3 lb=2:    192 shell pairs
          la=3 lb=3:     26 shell pairs

Calculating one electron integrals          ... done (  0.0 sec)
Calculating RI/J V-Matrix + Cholesky decomp.... done (  0.0 sec)
Calculating Nuclear repulsion               ... done (  0.0 sec) ENN=   3866.363804058294 Eh

SHARK setup successfully completed in   0.8 seconds

Maximum memory used throughout the entire GTOINT-calculation: 24.0 MB


           ************************************************************
           *        Program running with 16 parallel MPI-processes    *
           *              working on a common directory               *
           ************************************************************
-------------------------------------------------------------------------------
                                 ORCA SCF
-------------------------------------------------------------------------------

------------
SCF SETTINGS
------------
Hamiltonian:
 Density Functional     Method          .... DFT(GTOs)
 Exchange Functional    Exchange        .... B88
   X-Alpha parameter    XAlpha          ....  0.666667
   Becke's b parameter  XBeta           ....  0.004200
 Correlation Functional Correlation     .... LYP
 LDA part of GGA corr.  LDAOpt          .... VWN-5
 Gradients option       PostSCFGGA      .... off
 Hybrid DFT is turned on
   Fraction HF Exchange ScalHFX         ....  0.200000
   Scaling of DF-GGA-X  ScalDFX         ....  0.720000
   Scaling of DF-GGA-C  ScalDFC         ....  0.810000
   Scaling of DF-LDA-C  ScalLDAC        ....  1.000000
   Perturbative correction              ....  0.000000
   Density functional embedding theory  .... OFF
   NL short-range parameter             ....  4.800000
 RI-approximation to the Coulomb term is turned on
   Number of AuxJ basis functions       .... 728
   RIJ-COSX (HFX calculated with COS-X)).... on


General Settings:
 Integral files         IntName         .... cu8
 Hartree-Fock type      HFTyp           .... RHF
 Total Charge           Charge          ....    0
 Multiplicity           Mult            ....    1
 Number of Electrons    NEL             ....  232
 Basis Dimension        Dim             ....  360
 Nuclear Repulsion      ENuc            ....   3866.3638040583 Eh

Convergence Acceleration:
 DIIS                   CNVDIIS         .... on
   Start iteration      DIISMaxIt       ....     0
   Startup error        DIISStart       ....  0.200000
   # of expansion vecs  DIISMaxEq       ....     5
   Bias factor          DIISBfac        ....   1.050
   Max. coefficient     DIISMaxC        ....  10.000
 Trust-Rad. Augm. Hess. CNVTRAH         .... auto
   Auto Start mean grad. ratio tolernc. ....  1.125000
   Auto Start start iteration           ....    20
   Auto Start num. interpolation iter.  ....    10
   Max. Number of Micro iterations      ....    16
   Max. Number of Macro iterations      .... Maxiter - #DIIS iter
   Number of Davidson start vectors     ....     2
   Converg. threshold I  (grad. norm)   ....   1.000e-05
   Converg. threshold II (energy diff.) ....   1.000e-08
   Grad. Scal. Fac. for Micro threshold ....   0.100
   Minimum threshold for Micro iter.    ....   0.010
   NR start threshold (gradient norm)   ....   0.001
   Initial trust radius                 ....   0.400
   Minimum AH scaling param. (alpha)    ....   1.000
   Maximum AH scaling param. (alpha)    .... 1000.000
   Orbital update algorithm             .... Taylor
   White noise on init. David. guess    .... on
   Maximum white noise                  ....   0.010
   Quad. conv. algorithm                .... NR
 SOSCF                  CNVSOSCF        .... off
 Level Shifting         CNVShift        .... on
   Level shift para.    LevelShift      ....    0.2500
   Turn off err/grad.   ShiftErr        ....    0.0000
 Zerner damping         CNVZerner       .... off
 Static damping         CNVDamp         .... on
   Fraction old density DampFac         ....    0.8500
   Max. Damping (<1)    DampMax         ....    0.9800
   Min. Damping (>=0)   DampMin         ....    0.0000
   Turn off err/grad.   DampErr         ....    0.0300
 Fernandez-Rico         CNVRico         .... off

SCF Procedure:
 Maximum # iterations   MaxIter         ....   125
 SCF integral mode      SCFMode         .... Direct
   Integral package                     .... SHARK and LIBINT hybrid scheme
 Reset frequency        DirectResetFreq ....    20
 Integral Threshold     Thresh          ....  2.500e-11 Eh
 Primitive CutOff       TCut            ....  2.500e-12 Eh

Convergence Tolerance:
 Convergence Check Mode ConvCheckMode   .... Total+1el-Energy
 Convergence forced     ConvForced      .... 0
 Energy Change          TolE            ....  1.000e-08 Eh
 1-El. energy change                    ....  1.000e-05 Eh
 DIIS Error             TolErr          ....  5.000e-07


Diagonalization of the overlap matrix:
Smallest eigenvalue                        ... 1.009e-02
Time for diagonalization                   ...    0.024 sec
Threshold for overlap eigenvalues          ... 1.000e-08
Number of eigenvalues below threshold      ... 0
Time for construction of square roots      ...    0.018 sec
Total time needed                          ...    0.043 sec

Time for model grid setup =    0.321 sec

------------------------------
INITIAL GUESS: MODEL POTENTIAL
------------------------------
Loading Hartree-Fock densities                     ... done
Calculating cut-offs                               ... done
Initializing the effective Hamiltonian             ... done
Setting up the integral package (SHARK)            ... done
Starting the Coulomb interaction                   ... done (   0.1 sec)
Reading the grid                                   ... done
Mapping shells                                     ... done
Starting the XC term evaluation                    ... done (   0.1 sec)
  promolecular density results
     # of electrons  =    232.000371303
     EX              =   -526.447011382
     EC              =    -11.052668664
     EX+EC           =   -537.499680047
Transforming the Hamiltonian                       ... done (   0.0 sec)
Diagonalizing the Hamiltonian                      ... done (   0.0 sec)
Back transforming the eigenvectors                 ... done (   0.0 sec)
Now organizing SCF variables                       ... done
                      ------------------
                      INITIAL GUESS DONE (   0.6 sec)
                      ------------------
-------------------
DFT GRID GENERATION
-------------------

General Integration Accuracy     IntAcc      ... 4.388
Radial Grid Type                 RadialGrid  ... OptM3 with GC (2021)
Angular Grid (max. ang.)         AngularGrid ... 4 (Lebedev-302)
Angular grid pruning method      GridPruning ... 4 (adaptive)
Weight generation scheme         WeightScheme... Becke
Basis function cutoff            BFCut       ... 1.0000e-11
Integration weight cutoff        WCut        ... 1.0000e-14
Angular grids for H and He will be reduced by one unit
Partially contracted basis set               ... off
Rotationally invariant grid construction     ... off

Total number of grid points                  ...    89598
Total number of batches                      ...     1405
Average number of points per batch           ...       63
Average number of grid points per atom       ...    11200
Time for grid setup =    1.244 sec

--------------------
COSX GRID GENERATION
--------------------

GRIDX 1
-------
General Integration Accuracy     IntAcc      ... 3.816
Radial Grid Type                 RadialGrid  ... OptM3 with GC (2021)
Angular Grid (max. ang.)         AngularGrid ... 1 (Lebedev-50)
Angular grid pruning method      GridPruning ... 4 (adaptive)
Weight generation scheme         WeightScheme... Becke
Basis function cutoff            BFCut       ... 1.0000e-11
Integration weight cutoff        WCut        ... 1.0000e-14
Angular grids for H and He will be reduced by one unit
Partially contracted basis set               ... on
Rotationally invariant grid construction     ... off

Total number of grid points                  ...     9684
Total number of batches                      ...      153
Average number of points per batch           ...       63
Average number of grid points per atom       ...     1210
UseSFitting                                  ... on

GRIDX 2
-------
General Integration Accuracy     IntAcc      ... 4.020
Radial Grid Type                 RadialGrid  ... OptM3 with GC (2021)
Angular Grid (max. ang.)         AngularGrid ... 2 (Lebedev-110)
Angular grid pruning method      GridPruning ... 4 (adaptive)
Weight generation scheme         WeightScheme... Becke
Basis function cutoff            BFCut       ... 1.0000e-11
Integration weight cutoff        WCut        ... 1.0000e-14
Angular grids for H and He will be reduced by one unit
Partially contracted basis set               ... on
Rotationally invariant grid construction     ... off

Total number of grid points                  ...    21156
Total number of batches                      ...      336
Average number of points per batch           ...       62
Average number of grid points per atom       ...     2644
UseSFitting                                  ... on

GRIDX 3
-------
General Integration Accuracy     IntAcc      ... 4.338
Radial Grid Type                 RadialGrid  ... OptM3 with GC (2021)
Angular Grid (max. ang.)         AngularGrid ... 3 (Lebedev-194)
Angular grid pruning method      GridPruning ... 4 (adaptive)
Weight generation scheme         WeightScheme... Becke
Basis function cutoff            BFCut       ... 1.0000e-11
Integration weight cutoff        WCut        ... 1.0000e-14
Angular grids for H and He will be reduced by one unit
Partially contracted basis set               ... on
Rotationally invariant grid construction     ... off

Total number of grid points                  ...    48268
Total number of batches                      ...      759
Average number of points per batch           ...       63
Average number of grid points per atom       ...     6034
UseSFitting                                  ... on

Time for X-Grid setup             =    0.641 sec


--------------------
CPCM SOLVATION MODEL
--------------------
CPCM parameters:
  Epsilon                                         ...      80.4000
  Refrac                                          ...       1.3300
  Rsolv                                           ...       1.3000
  Surface type                                    ... GAUSSIAN VDW
  Epsilon function type                           ...         CPCM
Radii:
 Radius for Cu used is    3.1747 Bohr (=   1.6800 Ang.)
Calculating surface                               ...        done! (  0.0s)
GEPOL surface points                              ...          836
GEPOL Volume                                      ...     986.3329
GEPOL Surface-area                                ...     665.6965
Calculating surface distance matrix               ...        done! (  0.0s)
Performing Cholesky decomposition & store         ...        done! (  0.0s)
Overall time for CPCM initialization              ...                 0.1s
--------------
SCF ITERATIONS
--------------
ITER       Energy         Delta-E        Max-DP      RMS-DP      [F,P]     Damp
               ***  Starting incremental Fock matrix formation  ***
  0 -13123.6325281655   0.000000000000 0.03327981  0.00051677  0.1326793 0.8500
  1 -13123.6933505502  -0.060822384730 0.04046095  0.00053880  0.0698547 0.8500
                               ***Turning on DIIS***
  2 -13123.7214338933  -0.028083343075 0.03779159  0.00046386  0.0354484 0.8500
  3 -13123.7385861563  -0.017152262990 0.21113836  0.00248443  0.0289538 0.0000
  4 -13123.8259681157  -0.087381959471 0.01222230  0.00026646  0.0134024 0.0000
  5 -13123.8318202410  -0.005852125223 0.00355986  0.00010954  0.0032972 0.0000
  6 -13123.8323683053  -0.000548064387 0.00130522  0.00005367  0.0050976 0.0000
  7 -13123.8325976277  -0.000229322381 0.00158008  0.00003035  0.0011622 0.0000
  8 -13123.8326442349  -0.000046607134 0.00084328  0.00001842  0.0004973 0.0000
               *** Restarting incremental Fock matrix formation ***
                                   *** Resetting DIIS ***
  9 -13123.8326396596   0.000004575262 0.00046086  0.00001344  0.0005088 0.0000
 10 -13123.8326401737  -0.000000514150 0.00024291  0.00000756  0.0012044 0.0000
 11 -13123.8326476130  -0.000007439223 0.00034130  0.00000526  0.0002749 0.0000
 12 -13123.8326489181  -0.000001305087 0.00021665  0.00000367  0.0000508 0.0000
 13 -13123.8326493835  -0.000000465468 0.00010624  0.00000236  0.0001173 0.0000
 14 -13123.8326496047  -0.000000221202 0.00009645  0.00000191  0.0000428 0.0000
 15 -13123.8326497362  -0.000000131513 0.00007313  0.00000145  0.0000256 0.0000
 16 -13123.8326498224  -0.000000086135 0.00005535  0.00000108  0.0000200 0.0000
 17 -13123.8326498943  -0.000000071937 0.00004423  0.00000085  0.0000228 0.0000
 18 -13123.8326499503  -0.000000055958 0.00003824  0.00000072  0.0000118 0.0000
 19 -13123.8326499803  -0.000000030048 0.00002843  0.00000055  0.0000090 0.0000
 20 -13123.8326500386  -0.000000058308 0.00002111  0.00000040  0.0000074 0.0000
 21 -13123.8326500272   0.000000011392 0.00001756  0.00000033  0.0000076 0.0000
 22 -13123.8326500501  -0.000000022912 0.00001171  0.00000022  0.0000036 0.0000
 23 -13123.8326500589  -0.000000008755 0.00000908  0.00000017  0.0000046 0.0000
 24 -13123.8326500511   0.000000007778 0.00000724  0.00000014  0.0000031 0.0000
                 **** Energy Check signals convergence ****

               *****************************************************
               *                     SUCCESS                       *
               *           SCF CONVERGED AFTER  25 CYCLES          *
               *****************************************************

Old exchange energy                            =   -104.900451088 Eh
New exchange energy                            =   -104.900460894 Eh
Exchange energy change after final integration =     -0.000009806 Eh
Total energy after final integration           = -13123.832659862 Eh
Final COS-X integration done in                =     4.271 sec

----------------
TOTAL SCF ENERGY
----------------

Total Energy       :       -13123.83265986 Eh         -357117.64218 eV

Components:
Nuclear Repulsion  :         3866.36380406 Eh          105209.10784 eV
Electronic Energy  :       -16990.19646392 Eh         -462326.75002 eV
One Electron Energy:       -26035.49235689 Eh         -708461.76453 eV
Two Electron Energy:         9045.29589296 Eh          246135.01451 eV
Max COSX asymmetry :            0.00000837 Eh               0.00023 eV
CPCM Dielectric    :           -0.01600442 Eh              -0.43550 eV

Virial components:
Potential Energy   :       -26227.94213348 Eh         -713698.58919 eV
Kinetic Energy     :        13104.10947362 Eh          356580.94700 eV
Virial Ratio       :            2.00150511


DFT components:
N(Alpha)           :      116.000010248990 electrons
N(Beta)            :      116.000010248990 electrons
N(Total)           :      232.000020497980 electrons
E(X)               :     -419.226712384054 Eh       
E(C)               :      -12.890409540336 Eh       
E(XC)              :     -432.117121924390 Eh       
DFET-embed. en.    :        0.000000000000 Eh       
CPCM Solvation Model Properties:
Surface-charge          :           -0.20076100
Charge-correction       :            0.00401529 Eh               0.10926 eV
Free-energy (cav+disp)  :  This term is not implemented in the current solvation scheme

---------------
SCF CONVERGENCE
---------------

  Last Energy change         ...   -5.2460e-09  Tolerance :   1.0000e-08
  Last MAX-Density change    ...    0.0000e+00  Tolerance :   1.0000e-07
  Last RMS-Density change    ...    0.0000e+00  Tolerance :   5.0000e-09
  Last DIIS Error            ...    1.3998e-06  Tolerance :   5.0000e-07

             **** THE GBW FILE WAS UPDATED (cu8.gbw) ****
             **** DENSITY cu8.scfp WAS UPDATED ****
             **** ENERGY FILE WAS UPDATED (cu8.en.tmp) ****
             **** THE GBW FILE WAS UPDATED (cu8.gbw) ****
             **** DENSITY cu8.scfp WAS UPDATED ****
----------------
ORBITAL ENERGIES
----------------

  NO   OCC          E(Eh)            E(eV) 
   0   2.0000    -322.964824     -8788.3197 
   1   2.0000    -322.964823     -8788.3196 
   2   2.0000    -322.964789     -8788.3187 
   3   2.0000    -322.964788     -8788.3187 
   4   2.0000    -322.963671     -8788.2883 
   5   2.0000    -322.963670     -8788.2883 
   6   2.0000    -322.963544     -8788.2848 
   7   2.0000    -322.963543     -8788.2848 
   8   2.0000     -38.755708     -1054.5964 
   9   2.0000     -38.755708     -1054.5964 
  10   2.0000     -38.755701     -1054.5962 
  11   2.0000     -38.755699     -1054.5962 
  12   2.0000     -38.755698     -1054.5961 
  13   2.0000     -38.755676     -1054.5956 
  14   2.0000     -38.755513     -1054.5911 
  15   2.0000     -38.755506     -1054.5909 
  16   2.0000     -33.960586      -924.1145 
  17   2.0000     -33.960583      -924.1144 
  18   2.0000     -33.960397      -924.1094 
  19   2.0000     -33.960395      -924.1093 
  20   2.0000     -33.960348      -924.1080 
  21   2.0000     -33.960341      -924.1079 
  22   2.0000     -33.960335      -924.1077 
  23   2.0000     -33.960328      -924.1075 
  24   2.0000     -33.960218      -924.1045 
  25   2.0000     -33.960216      -924.1044 
  26   2.0000     -33.960213      -924.1044 
  27   2.0000     -33.960211      -924.1043 
  28   2.0000     -33.960209      -924.1043 
  29   2.0000     -33.960207      -924.1042 
  30   2.0000     -33.960205      -924.1042 
  31   2.0000     -33.960205      -924.1041 
  32   2.0000     -33.960069      -924.1005 
  33   2.0000     -33.960066      -924.1004 
  34   2.0000     -33.959942      -924.0970 
  35   2.0000     -33.959939      -924.0969 
  36   2.0000     -33.959884      -924.0954 
  37   2.0000     -33.959882      -924.0954 
  38   2.0000     -33.959760      -924.0920 
  39   2.0000     -33.959757      -924.0920 
  40   2.0000      -4.245020      -115.5129 
  41   2.0000      -4.245006      -115.5125 
  42   2.0000      -4.245004      -115.5124 
  43   2.0000      -4.244991      -115.5121 
  44   2.0000      -4.244364      -115.4950 
  45   2.0000      -4.244360      -115.4949 
  46   2.0000      -4.244208      -115.4908 
  47   2.0000      -4.244201      -115.4906 
  48   2.0000      -2.739136       -74.5357 
  49   2.0000      -2.739132       -74.5356 
  50   2.0000      -2.739028       -74.5327 
  51   2.0000      -2.739020       -74.5325 
  52   2.0000      -2.738878       -74.5286 
  53   2.0000      -2.738870       -74.5284 
  54   2.0000      -2.738827       -74.5273 
  55   2.0000      -2.738800       -74.5265 
  56   2.0000      -2.738762       -74.5255 
  57   2.0000      -2.738640       -74.5222 
  58   2.0000      -2.738599       -74.5211 
  59   2.0000      -2.738570       -74.5203 
  60   2.0000      -2.738569       -74.5203 
  61   2.0000      -2.738412       -74.5160 
  62   2.0000      -2.738359       -74.5145 
  63   2.0000      -2.738242       -74.5113 
  64   2.0000      -2.738129       -74.5083 
  65   2.0000      -2.738034       -74.5057 
  66   2.0000      -2.737892       -74.5018 
  67   2.0000      -2.737814       -74.4997 
  68   2.0000      -2.736931       -74.4757 
  69   2.0000      -2.736810       -74.4724 
  70   2.0000      -2.736695       -74.4692 
  71   2.0000      -2.736589       -74.4664 
  72   2.0000      -0.289664        -7.8821 
  73   2.0000      -0.259884        -7.0718 
  74   2.0000      -0.254184        -6.9167 
  75   2.0000      -0.254035        -6.9126 
  76   2.0000      -0.252406        -6.8683 
  77   2.0000      -0.250208        -6.8085 
  78   2.0000      -0.249718        -6.7952 
  79   2.0000      -0.249699        -6.7947 
  80   2.0000      -0.249626        -6.7927 
  81   2.0000      -0.249455        -6.7880 
  82   2.0000      -0.248941        -6.7740 
  83   2.0000      -0.247294        -6.7292 
  84   2.0000      -0.247256        -6.7282 
  85   2.0000      -0.241466        -6.5706 
  86   2.0000      -0.239506        -6.5173 
  87   2.0000      -0.238803        -6.4982 
  88   2.0000      -0.238674        -6.4946 
  89   2.0000      -0.236687        -6.4406 
  90   2.0000      -0.233711        -6.3596 
  91   2.0000      -0.233659        -6.3582 
  92   2.0000      -0.232401        -6.3239 
  93   2.0000      -0.231586        -6.3018 
  94   2.0000      -0.229037        -6.2324 
  95   2.0000      -0.228657        -6.2221 
  96   2.0000      -0.228560        -6.2194 
  97   2.0000      -0.228455        -6.2166 
  98   2.0000      -0.228293        -6.2122 
  99   2.0000      -0.225923        -6.1477 
 100   2.0000      -0.225842        -6.1455 
 101   2.0000      -0.222206        -6.0465 
 102   2.0000      -0.221997        -6.0409 
 103   2.0000      -0.221906        -6.0384 
 104   2.0000      -0.221858        -6.0371 
 105   2.0000      -0.219341        -5.9686 
 106   2.0000      -0.219247        -5.9660 
 107   2.0000      -0.219164        -5.9637 
 108   2.0000      -0.218621        -5.9490 
 109   2.0000      -0.217896        -5.9293 
 110   2.0000      -0.217759        -5.9255 
 111   2.0000      -0.216000        -5.8777 
 112   2.0000      -0.215895        -5.8748 
 113   2.0000      -0.180382        -4.9084 
 114   2.0000      -0.161033        -4.3819 
 115   2.0000      -0.161016        -4.3815 
 116   0.0000      -0.062254        -1.6940 
 117   0.0000      -0.059767        -1.6263 
 118   0.0000      -0.059498        -1.6190 
 119   0.0000      -0.048562        -1.3214 
 120   0.0000      -0.021250        -0.5782 
 121   0.0000      -0.012306        -0.3349 
 122   0.0000       0.022319         0.6073 
 123   0.0000       0.033134         0.9016 
 124   0.0000       0.033260         0.9051 
 125   0.0000       0.039885         1.0853 
 126   0.0000       0.054550         1.4844 
 127   0.0000       0.055761         1.5173 
 128   0.0000       0.056506         1.5376 
 129   0.0000       0.072020         1.9598 
 130   0.0000       0.110983         3.0200 
 131   0.0000       0.111367         3.0304 
 132   0.0000       0.126143         3.4325 
 133   0.0000       0.131421         3.5761 
 134   0.0000       0.131495         3.5781 
 135   0.0000       0.140817         3.8318 
 136   0.0000       0.149516         4.0685 
 137   0.0000       0.149618         4.0713 
 138   0.0000       0.159424         4.3381 
 139   0.0000       0.163883         4.4595 
 140   0.0000       0.167268         4.5516 
 141   0.0000       0.182329         4.9614 
 142   0.0000       0.194764         5.2998 
 143   0.0000       0.205805         5.6002 
 144   0.0000       0.206108         5.6085 
 145   0.0000       0.225206         6.1282 
 146   0.0000       0.230701         6.2777 
 147   0.0000       0.232324         6.3219 
 148   0.0000       0.232327         6.3219 
 149   0.0000       0.245052         6.6682 
 150   0.0000       0.255827         6.9614 
 151   0.0000       0.256469         6.9789 
 152   0.0000       0.256590         6.9822 
 153   0.0000       0.269767         7.3407 
 154   0.0000       0.277967         7.5639 
 155   0.0000       0.278553         7.5798 
 156   0.0000       0.279510         7.6058 
 157   0.0000       0.280485         7.6324 
 158   0.0000       0.294092         8.0026 
 159   0.0000       0.303482         8.2582 
 160   0.0000       0.303555         8.2602 
 161   0.0000       0.313720         8.5368 
 162   0.0000       0.319438         8.6924 
 163   0.0000       0.325584         8.8596 
 164   0.0000       0.340700         9.2709 
 165   0.0000       0.341104         9.2819 
 166   0.0000       0.361750         9.8437 
 167   0.0000       0.361886         9.8474 
 168   0.0000       0.372795        10.1443 
 169   0.0000       0.376289        10.2393 
 170   0.0000       0.378221        10.2919 
 171   0.0000       0.379122        10.3164 
 172   0.0000       0.379506        10.3269 
 173   0.0000       0.400393        10.8952 
 174   0.0000       0.409577        11.1451 
 175   0.0000       0.409790        11.1510 
 176   0.0000       0.412704        11.2303 
 177   0.0000       0.419259        11.4086 
 178   0.0000       0.424639        11.5550 
 179   0.0000       0.425096        11.5675 
 180   0.0000       0.427187        11.6243 
 181   0.0000       0.428259        11.6535 
 182   0.0000       0.430230        11.7072 
 183   0.0000       0.433681        11.8011 
 184   0.0000       0.434344        11.8191 
 185   0.0000       0.467286        12.7155 
 186   0.0000       0.468169        12.7395 
 187   0.0000       0.472942        12.8694 
 188   0.0000       0.487231        13.2582 
 189   0.0000       0.495748        13.4900 
 190   0.0000       0.497137        13.5278 
 191   0.0000       0.555043        15.1035 
 192   0.0000       0.781063        21.2538 
 193   0.0000       0.793330        21.5876 
 194   0.0000       0.801235        21.8027 
 195   0.0000       0.801636        21.8136 
 196   0.0000       0.814238        22.1565 
 197   0.0000       0.816452        22.2168 
 198   0.0000       0.861923        23.4541 
 199   0.0000       0.874289        23.7906 
 200   0.0000       0.875312        23.8185 
 201   0.0000       0.883806        24.0496 
 202   0.0000       0.891036        24.2463 
 203   0.0000       0.906047        24.6548 
 204   0.0000       0.907238        24.6872 
 205   0.0000       0.922935        25.1143 
 206   0.0000       0.938523        25.5385 
 207   0.0000       0.958766        26.0894 
 208   0.0000       0.960933        26.1483 
 209   0.0000       0.987666        26.8758 
 210   0.0000       1.000657        27.2293 
 211   0.0000       1.007282        27.4095 
 212   0.0000       1.008668        27.4473 
 213   0.0000       1.009162        27.4607 
 214   0.0000       1.027135        27.9498 
 215   0.0000       1.027337        27.9553 
 216   0.0000       1.027806        27.9680 
 217   0.0000       1.094217        29.7752 
 218   0.0000       1.094331        29.7783 
 219   0.0000       1.103967        30.0405 
 220   0.0000       1.157227        31.4898 
 221   0.0000       1.157958        31.5096 
 222   0.0000       1.169977        31.8367 
 223   0.0000       1.172034        31.8927 
 224   0.0000       1.183538        32.2057 
 225   0.0000       1.185635        32.2628 
 226   0.0000       1.198199        32.6047 
 227   0.0000       1.199044        32.6276 
 228   0.0000       1.232021        33.5250 
 229   0.0000       1.259024        34.2598 
 230   0.0000       1.260762        34.3071 
 231   0.0000       1.271685        34.6043 
 232   0.0000       2.237562        60.8872 
 233   0.0000       2.237812        60.8939 
 234   0.0000       2.270760        61.7905 
 235   0.0000       2.272198        61.8297 
 236   0.0000       2.272783        61.8456 
 237   0.0000       2.309375        62.8413 
 238   0.0000       2.316194        63.0269 
 239   0.0000       2.316750        63.0420 
 240   0.0000       2.327060        63.3225 
 241   0.0000       2.366447        64.3943 
 242   0.0000       2.370909        64.5157 
 243   0.0000       2.372219        64.5514 
 244   0.0000       2.385126        64.9026 
 245   0.0000       2.419185        65.8294 
 246   0.0000       2.419562        65.8396 
 247   0.0000       2.424215        65.9662 
 248   0.0000       2.443793        66.4990 
 249   0.0000       2.447220        66.5922 
 250   0.0000       2.494492        67.8786 
 251   0.0000       2.496476        67.9326 
 252   0.0000       2.536009        69.0083 
 253   0.0000       2.597214        70.6738 
 254   0.0000       2.639845        71.8338 
 255   0.0000       2.639906        71.8355 
 256   0.0000       2.910750        79.2055 
 257   0.0000       3.279634        89.2434 
 258   0.0000       3.280116        89.2565 
 259   0.0000       3.334949        90.7486 
 260   0.0000       3.336080        90.7793 
 261   0.0000       3.367855        91.6440 
 262   0.0000       3.371986        91.7564 
 263   0.0000       3.487573        94.9017 
 264   0.0000       3.640667        99.0676 
 265   0.0000       3.654596        99.4466 
 266   0.0000       3.658845        99.5622 
 267   0.0000       3.659327        99.5753 
 268   0.0000       3.661635        99.6381 
 269   0.0000       3.668968        99.8377 
 270   0.0000       3.676997       100.0562 
 271   0.0000       3.677581       100.0721 
 272   0.0000       3.678354       100.0931 
 273   0.0000       3.699486       100.6681 
 274   0.0000       3.723062       101.3097 
 275   0.0000       3.734222       101.6133 
 276   0.0000       3.737577       101.7047 
 277   0.0000       3.738466       101.7288 
 278   0.0000       3.758048       102.2617 
 279   0.0000       3.759136       102.2913 
 280   0.0000       3.765428       102.4625 
 281   0.0000       3.766427       102.4897 
 282   0.0000       3.791795       103.1800 
 283   0.0000       3.807374       103.6039 
 284   0.0000       3.815812       103.8335 
 285   0.0000       3.817078       103.8680 
 286   0.0000       3.858799       105.0033 
 287   0.0000       3.863696       105.1365 
 288   0.0000       3.863998       105.1447 
 289   0.0000       3.884466       105.7017 
 290   0.0000       3.884783       105.7103 
 291   0.0000       3.888915       105.8228 
 292   0.0000       3.897452       106.0551 
 293   0.0000       3.905161       106.2648 
 294   0.0000       3.923811       106.7723 
 295   0.0000       3.935819       107.0991 
 296   0.0000       3.936053       107.1054 
 297   0.0000       3.955455       107.6334 
 298   0.0000       3.958605       107.7191 
 299   0.0000       3.963579       107.8545 
 300   0.0000       4.038692       109.8984 
 301   0.0000       4.040093       109.9365 
 302   0.0000       4.052874       110.2843 
 303   0.0000       4.179574       113.7320 
 304   0.0000       5.825020       158.5069 
 305   0.0000       5.825249       158.5131 
 306   0.0000       5.825251       158.5131 
 307   0.0000       5.825300       158.5145 
 308   0.0000       5.825304       158.5146 
 309   0.0000       5.825334       158.5154 
 310   0.0000       5.825466       158.5190 
 311   0.0000       5.825558       158.5215 
 312   0.0000       5.825601       158.5227 
 313   0.0000       5.825635       158.5236 
 314   0.0000       5.825657       158.5242 
 315   0.0000       5.825744       158.5266 
 316   0.0000       5.825794       158.5279 
 317   0.0000       5.826142       158.5374 
 318   0.0000       5.826281       158.5412 
 319   0.0000       5.826289       158.5414 
 320   0.0000       5.826372       158.5437 
 321   0.0000       5.826374       158.5437 
 322   0.0000       5.826390       158.5441 
 323   0.0000       5.826583       158.5494 
 324   0.0000       5.826874       158.5573 
 325   0.0000       5.826881       158.5575 
 326   0.0000       5.826964       158.5598 
 327   0.0000       5.827258       158.5677 
 328   0.0000       5.827583       158.5766 
 329   0.0000       5.827617       158.5775 
 330   0.0000       5.827743       158.5810 
 331   0.0000       5.827766       158.5816 
 332   0.0000       5.827868       158.5844 
 333   0.0000       5.827918       158.5857 
 334   0.0000       5.828012       158.5883 
 335   0.0000       5.828028       158.5887 
 336   0.0000       5.828180       158.5928 
 337   0.0000       5.828584       158.6038 
 338   0.0000       5.828640       158.6054 
 339   0.0000       5.828813       158.6101 
 340   0.0000       5.828866       158.6115 
 341   0.0000       5.829062       158.6168 
 342   0.0000       5.829530       158.6296 
 343   0.0000       5.829551       158.6301 
 344   0.0000       5.830199       158.6478 
 345   0.0000       5.831816       158.6918 
 346   0.0000       5.831907       158.6943 
 347   0.0000       5.832018       158.6973 
 348   0.0000       5.832094       158.6993 
 349   0.0000       5.832329       158.7057 
 350   0.0000       5.832828       158.7193 
 351   0.0000       5.832892       158.7210 
 352   0.0000       5.833085       158.7263 
 353   0.0000       5.833977       158.7506 
 354   0.0000       5.834141       158.7551 
 355   0.0000       5.834385       158.7617 
 356   0.0000       5.834934       158.7766 
 357   0.0000       5.836098       158.8083 
 358   0.0000       5.836638       158.8230 
 359   0.0000       5.837200       158.8383 

                    ********************************
                    * MULLIKEN POPULATION ANALYSIS *
                    ********************************

-----------------------
MULLIKEN ATOMIC CHARGES
-----------------------
   0 Cu:   -0.029332
   1 Cu:    0.029780
   2 Cu:   -0.028949
   3 Cu:    0.028502
   4 Cu:   -0.029332
   5 Cu:   -0.028950
   6 Cu:    0.028502
   7 Cu:    0.029780
Sum of atomic charges:   -0.0000000

--------------------------------
MULLIKEN REDUCED ORBITAL CHARGES
--------------------------------
  0 Cus       :     6.945684  s :     6.945684
      pz      :     4.074693  p :    12.195409
      px      :     4.080025
      py      :     4.040691
      dz2     :     1.973122  d :     9.888220
      dxz     :     1.975864
      dyz     :     1.974218
      dx2y2   :     1.997755
      dxy     :     1.967261
      f0      :     0.000003  f :     0.000019
      f+1     :     0.000002
      f-1     :     0.000003
      f+2     :     0.000002
      f-2     :     0.000003
      f+3     :     0.000003
      f-3     :     0.000002
  1 Cus       :     6.939246  s :     6.939246
      pz      :     4.043084  p :    12.123429
      px      :     4.045733
      py      :     4.034612
      dz2     :     1.971730  d :     9.907525
      dxz     :     1.988100
      dyz     :     1.980975
      dx2y2   :     1.985148
      dxy     :     1.981570
      f0      :     0.000005  f :     0.000021
      f+1     :     0.000004
      f-1     :     0.000003
      f+2     :     0.000002
      f-2     :     0.000003
      f+3     :     0.000002
      f-3     :     0.000001
  2 Cus       :     6.946759  s :     6.946759
      pz      :     4.073570  p :    12.193170
      px      :     4.040371
      py      :     4.079229
      dz2     :     1.973522  d :     9.889002
      dxz     :     1.974191
      dyz     :     1.976299
      dx2y2   :     1.997728
      dxy     :     1.967263
      f0      :     0.000003  f :     0.000018
      f+1     :     0.000003
      f-1     :     0.000002
      f+2     :     0.000002
      f-2     :     0.000003
      f+3     :     0.000002
      f-3     :     0.000003
  3 Cus       :     6.940327  s :     6.940327
      pz      :     4.043058  p :    12.124111
      px      :     4.035358
      py      :     4.045695
      dz2     :     1.971264  d :     9.907040
      dxz     :     1.980992
      dyz     :     1.988115
      dx2y2   :     1.985199
      dxy     :     1.981469
      f0      :     0.000005  f :     0.000021
      f+1     :     0.000004
      f-1     :     0.000004
      f+2     :     0.000002
      f-2     :     0.000003
      f+3     :     0.000001
      f-3     :     0.000002
  4 Cus       :     6.945684  s :     6.945684
      pz      :     4.074693  p :    12.195409
      px      :     4.080025
      py      :     4.040691
      dz2     :     1.973122  d :     9.888220
      dxz     :     1.975864
      dyz     :     1.974218
      dx2y2   :     1.997755
      dxy     :     1.967261
      f0      :     0.000003  f :     0.000019
      f+1     :     0.000002
      f-1     :     0.000003
      f+2     :     0.000002
      f-2     :     0.000003
      f+3     :     0.000003
      f-3     :     0.000002
  5 Cus       :     6.946759  s :     6.946759
      pz      :     4.073570  p :    12.193170
      px      :     4.040371
      py      :     4.079229
      dz2     :     1.973522  d :     9.889002
      dxz     :     1.974190
      dyz     :     1.976299
      dx2y2   :     1.997728
      dxy     :     1.967263
      f0      :     0.000003  f :     0.000018
      f+1     :     0.000003
      f-1     :     0.000002
      f+2     :     0.000002
      f-2     :     0.000003
      f+3     :     0.000002
      f-3     :     0.000003
  6 Cus       :     6.940327  s :     6.940327
      pz      :     4.043057  p :    12.124110
      px      :     4.035358
      py      :     4.045695
      dz2     :     1.971264  d :     9.907040
      dxz     :     1.980992
      dyz     :     1.988115
      dx2y2   :     1.985199
      dxy     :     1.981469
      f0      :     0.000005  f :     0.000021
      f+1     :     0.000004
      f-1     :     0.000004
      f+2     :     0.000002
      f-2     :     0.000003
      f+3     :     0.000001
      f-3     :     0.000002
  7 Cus       :     6.939246  s :     6.939246
      pz      :     4.043084  p :    12.123429
      px      :     4.045733
      py      :     4.034612
      dz2     :     1.971730  d :     9.907525
      dxz     :     1.988101
      dyz     :     1.980975
      dx2y2   :     1.985148
      dxy     :     1.981570
      f0      :     0.000005  f :     0.000021
      f+1     :     0.000004
      f-1     :     0.000003
      f+2     :     0.000002
      f-2     :     0.000003
      f+3     :     0.000002
      f-3     :     0.000001


                     *******************************
                     * LOEWDIN POPULATION ANALYSIS *
                     *******************************

----------------------
LOEWDIN ATOMIC CHARGES
----------------------
   0 Cu:   -0.063447
   1 Cu:    0.063422
   2 Cu:   -0.061567
   3 Cu:    0.061593
   4 Cu:   -0.063447
   5 Cu:   -0.061568
   6 Cu:    0.061593
   7 Cu:    0.063422

-------------------------------
LOEWDIN REDUCED ORBITAL CHARGES
-------------------------------
  0 Cus       :     6.707808  s :     6.707808
      pz      :     4.098965  p :    12.243245
      px      :     4.097871
      py      :     4.046410
      dz2     :     2.017667  d :    10.112371
      dxz     :     1.989617
      dyz     :     2.036719
      dx2y2   :     2.015658
      dxy     :     2.052710
      f0      :     0.000005  f :     0.000024
      f+1     :     0.000002
      f-1     :     0.000003
      f+2     :     0.000002
      f-2     :     0.000005
      f+3     :     0.000004
      f-3     :     0.000003
  1 Cus       :     6.713252  s :     6.713252
      pz      :     4.040447  p :    12.142381
      px      :     4.055980
      py      :     4.045955
      dz2     :     2.027468  d :    10.080919
      dxz     :     2.013582
      dyz     :     2.025535
      dx2y2   :     2.011819
      dxy     :     2.002515
      f0      :     0.000007  f :     0.000026
      f+1     :     0.000004
      f-1     :     0.000004
      f+2     :     0.000003
      f-2     :     0.000004
      f+3     :     0.000002
      f-3     :     0.000001
  2 Cus       :     6.708570  s :     6.708570
      pz      :     4.097048  p :    12.240436
      px      :     4.046128
      py      :     4.097260
      dz2     :     2.017856  d :    10.112538
      dxz     :     2.036290
      dyz     :     1.989782
      dx2y2   :     2.015686
      dxy     :     2.052923
      f0      :     0.000005  f :     0.000024
      f+1     :     0.000003
      f-1     :     0.000002
      f+2     :     0.000002
      f-2     :     0.000005
      f+3     :     0.000003
      f-3     :     0.000004
  3 Cus       :     6.713713  s :     6.713713
      pz      :     4.040576  p :    12.143571
      px      :     4.046988
      py      :     4.056006
      dz2     :     2.027197  d :    10.081097
      dxz     :     2.025678
      dyz     :     2.013571
      dx2y2   :     2.011836
      dxy     :     2.002815
      f0      :     0.000007  f :     0.000026
      f+1     :     0.000004
      f-1     :     0.000004
      f+2     :     0.000003
      f-2     :     0.000005
      f+3     :     0.000001
      f-3     :     0.000002
  4 Cus       :     6.707807  s :     6.707807
      pz      :     4.098965  p :    12.243245
      px      :     4.097871
      py      :     4.046410
      dz2     :     2.017667  d :    10.112371
      dxz     :     1.989617
      dyz     :     2.036719
      dx2y2   :     2.015658
      dxy     :     2.052710
      f0      :     0.000005  f :     0.000024
      f+1     :     0.000002
      f-1     :     0.000003
      f+2     :     0.000002
      f-2     :     0.000005
      f+3     :     0.000004
      f-3     :     0.000003
  5 Cus       :     6.708570  s :     6.708570
      pz      :     4.097048  p :    12.240436
      px      :     4.046128
      py      :     4.097260
      dz2     :     2.017856  d :    10.112538
      dxz     :     2.036290
      dyz     :     1.989782
      dx2y2   :     2.015686
      dxy     :     2.052923
      f0      :     0.000005  f :     0.000024
      f+1     :     0.000003
      f-1     :     0.000002
[...]
	<< Calculating on displaced geometry  18 (of  48) >>
	<< Calculating on displaced geometry  19 (of  48) >>
	<< Calculating on displaced geometry  20 (of  48) >>
	<< Calculating on displaced geometry  21 (of  48) >>
	<< Calculating on displaced geometry  22 (of  48) >>
	<< Calculating on displaced geometry  23 (of  48) >>
	<< Calculating on displaced geometry  24 (of  48) >>
	<< Calculating on displaced geometry  25 (of  48) >>
	<< Calculating on displaced geometry  26 (of  48) >>
	<< Calculating on displaced geometry  27 (of  48) >>
	<< Calculating on displaced geometry  28 (of  48) >>
	<< Calculating on displaced geometry  29 (of  48) >>
	<< Calculating on displaced geometry  30 (of  48) >>
	<< Calculating on displaced geometry  31 (of  48) >>
	<< Calculating on displaced geometry  32 (of  48) >>
	<< Calculating on displaced geometry  33 (of  48) >>
	<< Calculating on displaced geometry  34 (of  48) >>
	<< Calculating on displaced geometry  35 (of  48) >>
	<< Calculating on displaced geometry  36 (of  48) >>
	<< Calculating on displaced geometry  37 (of  48) >>
	<< Calculating on displaced geometry  38 (of  48) >>
	<< Calculating on displaced geometry  39 (of  48) >>
	<< Calculating on displaced geometry  40 (of  48) >>
	<< Calculating on displaced geometry  41 (of  48) >>
	<< Calculating on displaced geometry  42 (of  48) >>
	<< Calculating on displaced geometry  43 (of  48) >>
	<< Calculating on displaced geometry  44 (of  48) >>
	<< Calculating on displaced geometry  46 (of  48) >>
	<< Calculating on displaced geometry  45 (of  48) >>
	<< Calculating on displaced geometry  47 (of  48) >>
	<< Calculating on displaced geometry  48 (of  48) >>

-----------------------
VIBRATIONAL FREQUENCIES
-----------------------

Scaling factor for frequencies =  1.000000000 (already applied!)

   0:         0.00 cm**-1
   1:         0.00 cm**-1
   2:         0.00 cm**-1
   3:         0.00 cm**-1
   4:         0.00 cm**-1
   5:         0.00 cm**-1
   6:        56.59 cm**-1
   7:        76.55 cm**-1
   8:        89.09 cm**-1
   9:       108.81 cm**-1
  10:       109.38 cm**-1
  11:       112.26 cm**-1
  12:       113.99 cm**-1
  13:       118.19 cm**-1
  14:       118.74 cm**-1
  15:       132.14 cm**-1
  16:       166.23 cm**-1
  17:       166.66 cm**-1
  18:       170.79 cm**-1
  19:       178.79 cm**-1
  20:       205.27 cm**-1
  21:       205.91 cm**-1
  22:       212.93 cm**-1
  23:       225.07 cm**-1


------------
NORMAL MODES
------------

These modes are the cartesian displacements weighted by the diagonal matrix
M(i,i)=1/sqrt(m[i]) where m[i] is the mass of the displaced atom
Thus, these vectors are normalized but *not* orthogonal

                  0          1          2          3          4          5    
      0       0.000000   0.000000   0.000000   0.000000   0.000000   0.000000
      1       0.000000   0.000000   0.000000   0.000000   0.000000   0.000000
      2       0.000000   0.000000   0.000000   0.000000   0.000000   0.000000
      3       0.000000   0.000000   0.000000   0.000000   0.000000   0.000000
      4       0.000000   0.000000   0.000000   0.000000   0.000000   0.000000
      5       0.000000   0.000000   0.000000   0.000000   0.000000   0.000000
      6       0.000000   0.000000   0.000000   0.000000   0.000000   0.000000
      7       0.000000   0.000000   0.000000   0.000000   0.000000   0.000000
      8       0.000000   0.000000   0.000000   0.000000   0.000000   0.000000
      9       0.000000   0.000000   0.000000   0.000000   0.000000   0.000000
     10       0.000000   0.000000   0.000000   0.000000   0.000000   0.000000
     11       0.000000   0.000000   0.000000   0.000000   0.000000   0.000000
     12       0.000000   0.000000   0.000000   0.000000   0.000000   0.000000
     13       0.000000   0.000000   0.000000   0.000000   0.000000   0.000000
     14       0.000000   0.000000   0.000000   0.000000   0.000000   0.000000
     15       0.000000   0.000000   0.000000   0.000000   0.000000   0.000000
     16       0.000000   0.000000   0.000000   0.000000   0.000000   0.000000
     17       0.000000   0.000000   0.000000   0.000000   0.000000   0.000000
     18       0.000000   0.000000   0.000000   0.000000   0.000000   0.000000
     19       0.000000   0.000000   0.000000   0.000000   0.000000   0.000000
     20       0.000000   0.000000   0.000000   0.000000   0.000000   0.000000
     21       0.000000   0.000000   0.000000   0.000000   0.000000   0.000000
     22       0.000000   0.000000   0.000000   0.000000   0.000000   0.000000
     23       0.000000   0.000000   0.000000   0.000000   0.000000   0.000000
                  6          7          8          9         10         11    
      0      -0.000232  -0.224053  -0.001500  -0.431236   0.008921   0.002721
      1      -0.475887  -0.001008   0.167001  -0.005162  -0.079296  -0.361492
      2      -0.065299   0.000480  -0.267688  -0.005395  -0.129084  -0.302540
      3      -0.139665  -0.000964   0.357633   0.048315  -0.001906   0.004482
      4      -0.000097  -0.445710  -0.000956  -0.006812  -0.308046   0.118576
      5       0.068772  -0.000670   0.142955   0.442651  -0.011676  -0.006434
      6       0.467526  -0.000327   0.172679   0.065977  -0.002970  -0.002625
      7      -0.000089  -0.223170  -0.000276   0.011338   0.426731  -0.202987
      8      -0.065129  -0.000675   0.268958  -0.119328   0.003796   0.003683
      9       0.000161   0.447641   0.001474   0.316157  -0.005246  -0.003708
     10      -0.133828   0.001347  -0.359854   0.002953  -0.036129   0.442547
     11       0.062665   0.000599  -0.144625  -0.013646  -0.446679  -0.158182
     12      -0.000102   0.225322  -0.000159  -0.428299   0.014223  -0.002028
     13       0.477465  -0.000251  -0.167661  -0.003564  -0.077168  -0.363019
     14      -0.065913   0.000513  -0.266929   0.005365   0.129567   0.303753
     15      -0.467220   0.000349  -0.172868   0.068313  -0.001507  -0.006666
     16      -0.000149   0.222021   0.000675   0.009625   0.422835  -0.199469
     17      -0.064940  -0.000476   0.268816   0.118555  -0.003513  -0.004963
     18       0.000082  -0.448318  -0.000494   0.312274  -0.011817   0.002517
     19       0.132839  -0.000327   0.360540   0.000370  -0.035937   0.443145
     20       0.061764   0.000058  -0.143510   0.012693   0.444577   0.161778
     21       0.139451   0.000349  -0.356765   0.048500   0.000302   0.005308
     22      -0.000255   0.447098   0.000531  -0.008749  -0.312989   0.122699
     23       0.068080   0.000172   0.142022  -0.440894   0.013012   0.002905
                 12         13         14         15         16         17    
      0       0.187815  -0.002092   0.307989   0.001001  -0.272637   0.002450
      1      -0.004654   0.315204   0.002685  -0.077931   0.006151   0.467746
      2      -0.004150   0.097386   0.001973  -0.145588  -0.003897  -0.268302
      3      -0.441079   0.051026  -0.000139   0.448579   0.137978  -0.001514
      4       0.001473   0.000496  -0.393542  -0.000793  -0.004699  -0.328397
      5       0.171440  -0.371950  -0.000192   0.136995  -0.041551   0.000087
      6       0.363543   0.320244   0.002023   0.097984   0.465760  -0.006345
      7      -0.001568   0.003768  -0.309671   0.000507  -0.002818  -0.282170
      8      -0.309311  -0.089799  -0.000693  -0.149922   0.279803  -0.003884
      9      -0.110254   0.002503  -0.389491  -0.000712  -0.330121   0.003496
     10       0.005264  -0.083568  -0.004262   0.442367   0.002125   0.140976
     11      -0.002878   0.365356  -0.000856   0.157613  -0.000414  -0.053860
     12       0.187872   0.000473  -0.311018  -0.000068  -0.273996   0.004481
     13      -0.004067  -0.312776  -0.000208   0.077524   0.006044   0.467330
     14       0.003323   0.095282  -0.000977  -0.144753   0.003292   0.268735
     15       0.364452  -0.318820  -0.000912  -0.098669   0.465729  -0.005718
     16      -0.002102   0.000627   0.319286   0.000664  -0.004430  -0.278587
     17       0.309763  -0.087897   0.000442  -0.150871  -0.279125   0.003700
     18      -0.110158  -0.001251   0.391474   0.000057  -0.331278   0.005210
     19       0.005017   0.079147  -0.002453  -0.442307   0.001492   0.141253
     20       0.001838   0.365809   0.003748   0.158507   0.000703   0.054330
     21      -0.442191  -0.052083   0.000076  -0.448172   0.138567  -0.002059
     22       0.000637  -0.002897   0.388165  -0.000030  -0.003867  -0.328151
     23      -0.170026  -0.374187  -0.003444   0.138019   0.041190  -0.000806
                 18         19         20         21         22         23    
      0       0.449592   0.000026  -0.262683  -0.001453   0.000106   0.000163
      1       0.001330  -0.075793  -0.001092   0.088677  -0.337506  -0.143586
      2      -0.000816   0.382614  -0.001685   0.459802  -0.138184   0.321141
      3      -0.000429   0.289603   0.093455   0.000288   0.174653   0.186764
      4      -0.225795   0.000083  -0.000198   0.077727   0.000300   0.000046
      5       0.000140   0.089744  -0.452550  -0.001794  -0.290717  -0.314547
      6      -0.000867  -0.079094   0.098642   0.001553  -0.339754   0.135120
      7       0.444483   0.000097   0.001253  -0.253008  -0.000316   0.000148
      8      -0.000346  -0.393515  -0.450468  -0.002210   0.134923   0.307824
      9       0.223159  -0.000289   0.070828   0.000252   0.000047   0.000045
     10       0.000184  -0.297532  -0.000405   0.088136  -0.175633   0.175266
     11      -0.000554  -0.077963   0.001878  -0.451662   0.294383  -0.313385
     12      -0.448800  -0.000233  -0.262495  -0.001195   0.000108   0.000220
     13       0.001364   0.075397   0.000022   0.087336   0.337260   0.143477
     14       0.000524   0.382243   0.002510  -0.459101  -0.140172   0.321552
     15      -0.000770   0.079778   0.098921  -0.000321   0.339492  -0.135287
     16      -0.445863  -0.000101   0.001343  -0.253019  -0.000374   0.000075
     17       0.000850  -0.394636   0.450627   0.002014   0.134504   0.307034
     18      -0.221861  -0.000399   0.070876   0.000278   0.000005  -0.000062
     19       0.000528   0.297580  -0.000557   0.086786   0.176001  -0.175414
     20       0.000161  -0.077788  -0.002469   0.450483   0.296396  -0.314034
     21      -0.000025  -0.289391   0.092455   0.000597  -0.174658  -0.186963
     22       0.223769   0.000268  -0.000367   0.077365   0.000267  -0.000012
     23       0.000043   0.089301   0.452156   0.002467  -0.291133  -0.315585


-----------
IR SPECTRUM
-----------

 Mode   freq       eps      Int      T**2         TX        TY        TZ
       cm**-1   L/(mol*cm) km/mol    a.u.
----------------------------------------------------------------------------
  6:     56.59   0.000144    0.73  0.000795  (-0.000153  0.000339  0.028185)
  7:     76.55   0.000000    0.00  0.000001  ( 0.000047 -0.000976 -0.000031)
  8:     89.09   0.000000    0.00  0.000000  (-0.000253  0.000099  0.000147)
  9:    108.81   0.000189    0.96  0.000542  (-0.023281  0.000529  0.000273)
 10:    109.38   0.000195    0.98  0.000555  ( 0.000624  0.023557 -0.000338)
 11:    112.26   0.000121    0.61  0.000336  (-0.000067 -0.018337 -0.000047)
 12:    113.99   0.000105    0.53  0.000289  ( 0.016986 -0.000201  0.000073)
 13:    118.19   0.000000    0.00  0.000001  ( 0.000481 -0.000571  0.000681)
 14:    118.74   0.000000    0.00  0.000000  (-0.000054 -0.000398  0.000014)
 15:    132.14   0.000155    0.78  0.000366  (-0.000174 -0.000133 -0.019139)
 16:    166.23   0.001327    6.71  0.002492  ( 0.049914  0.000652 -0.000027)
 17:    166.66   0.001415    7.15  0.002650  (-0.000638  0.051473 -0.000047)
 18:    170.79   0.000000    0.00  0.000000  (-0.000074 -0.000149 -0.000018)
 19:    178.79   0.000001    0.00  0.000001  (-0.000083  0.000093  0.000937)
 20:    205.27   0.001539    7.78  0.002340  ( 0.048376 -0.000237 -0.000279)
 21:    205.91   0.001445    7.30  0.002191  ( 0.000239  0.046803 -0.000264)
 22:    212.93   0.000000    0.00  0.000000  ( 0.000257 -0.000073  0.000046)
 23:    225.07   0.001663    8.41  0.002306  ( 0.000252  0.000336 -0.048021)

* The epsilon (eps) is given for a Dirac delta lineshape.
** The dipole moment derivative (T) already includes vibrational overlap.

--------------
RAMAN SPECTRUM  
--------------

 Mode    freq (cm**-1)   Activity   Depolarization
-------------------------------------------------------------------
   6:        56.59     34.909172      0.749260
   7:        76.55      0.188343      0.749590
   8:        89.09     21.680656      0.069417
   9:       108.81     29.130567      0.749973
  10:       109.38     31.517056      0.749995
  11:       112.26     28.224924      0.749953
  12:       113.99     30.903363      0.749990
  13:       118.19     80.010514      0.344309
  14:       118.74      0.005754      0.678650
  15:       132.14      1.398611      0.718430
  16:       166.23     10.412637      0.749993
  17:       166.66     10.150164      0.749874
  18:       170.79    101.525388      0.750000
  19:       178.79    157.340745      0.470198
  20:       205.27     15.222998      0.749998
  21:       205.91     16.005199      0.749762
  22:       212.93    964.080677      0.030414
  23:       225.07      1.014050      0.742858

The first frequency considered to be a vibration is 6
The total number of vibrations considered is 18


--------------------------
THERMOCHEMISTRY AT 298.15K
--------------------------

Temperature         ... 298.15 K
Pressure            ... 1.00 atm
Total Mass          ... 508.40 AMU

Throughout the following assumptions are being made:
  (1) The electronic state is orbitally nondegenerate
  (2) There are no thermally accessible electronically excited states
  (3) Hindered rotations indicated by low frequency modes are not
      treated as such but are treated as vibrations and this may
      cause some error
  (4) All equations used are the standard statistical mechanics
      equations for an ideal gas
  (5) All vibrations are strictly harmonic

freq.      56.59  E(vib)   ...       0.52 
freq.      76.55  E(vib)   ...       0.49 
freq.      89.09  E(vib)   ...       0.47 
freq.     108.81  E(vib)   ...       0.45 
freq.     109.38  E(vib)   ...       0.45 
freq.     112.26  E(vib)   ...       0.45 
freq.     113.99  E(vib)   ...       0.44 
freq.     118.19  E(vib)   ...       0.44 
freq.     118.74  E(vib)   ...       0.44 
freq.     132.14  E(vib)   ...       0.42 
freq.     166.23  E(vib)   ...       0.39 
freq.     166.66  E(vib)   ...       0.39 
freq.     170.79  E(vib)   ...       0.38 
freq.     178.79  E(vib)   ...       0.37 
freq.     205.27  E(vib)   ...       0.35 
freq.     205.91  E(vib)   ...       0.35 
freq.     212.93  E(vib)   ...       0.34 
freq.     225.07  E(vib)   ...       0.33 

------------
INNER ENERGY
------------

The inner energy is: U= E(el) + E(ZPE) + E(vib) + E(rot) + E(trans)
    E(el)   - is the total energy from the electronic structure calculation
              = E(kin-el) + E(nuc-el) + E(el-el) + E(nuc-nuc)
    E(ZPE)  - the the zero temperature vibrational energy from the frequency calculation
    E(vib)  - the the finite temperature correction to E(ZPE) due to population
              of excited vibrational states
    E(rot)  - is the rotational thermal energy
    E(trans)- is the translational thermal energy

Summary of contributions to the inner energy U:
Electronic energy                ... -13123.95124791 Eh
Zero point energy                ...      0.00584894 Eh       3.67 kcal/mol
Thermal vibrational correction   ...      0.01188715 Eh       7.46 kcal/mol
Thermal rotational correction    ...      0.00141627 Eh       0.89 kcal/mol
Thermal translational correction ...      0.00141627 Eh       0.89 kcal/mol
-----------------------------------------------------------------------
Total thermal energy                 -13123.93067928 Eh


Summary of corrections to the electronic energy:
(perhaps to be used in another calculation)
Total thermal correction                  0.01471969 Eh       9.24 kcal/mol
Non-thermal (ZPE) correction              0.00584894 Eh       3.67 kcal/mol
-----------------------------------------------------------------------
Total correction                          0.02056863 Eh      12.91 kcal/mol


--------
ENTHALPY
--------

The enthalpy is H = U + kB*T
                kB is Boltzmann's constant
Total free energy                 ... -13123.93067928 Eh 
Thermal Enthalpy correction       ...      0.00094421 Eh       0.59 kcal/mol
-----------------------------------------------------------------------
Total Enthalpy                    ... -13123.92973507 Eh


Note: Rotational entropy computed according to Herzberg 
Infrared and Raman Spectra, Chapter V,1, Van Nostrand Reinhold, 1945 
Point Group:  C2v, Symmetry Number:   2  
Rotational constants in cm-1:     0.015513     0.011039     0.011015 

Vibrational entropy computed according to the QRRHO of S. Grimme
Chem.Eur.J. 2012 18 9955


-------
ENTROPY
-------

The entropy contributions are T*S = T*(S(el)+S(vib)+S(rot)+S(trans))
     S(el)   - electronic entropy
     S(vib)  - vibrational entropy
     S(rot)  - rotational entropy
     S(trans)- translational entropy
The entropies will be listed as multiplied by the temperature to get
units of energy

Electronic entropy                ...      0.00000000 Eh      0.00 kcal/mol
Vibrational entropy               ...      0.02323140 Eh     14.58 kcal/mol
Rotational entropy                ...      0.01507893 Eh      9.46 kcal/mol
Translational entropy             ...      0.02117424 Eh     13.29 kcal/mol
-----------------------------------------------------------------------
Final entropy term                ...      0.05948457 Eh     37.33 kcal/mol

In case the symmetry of your molecule has not been determined correctly
or in case you have a reason to use a different symmetry number we print 
out the resulting rotational entropy values for sn=1,12 :
 --------------------------------------------------------
|  sn= 1 | S(rot)=       0.01573339 Eh      9.87 kcal/mol|
|  sn= 2 | S(rot)=       0.01507893 Eh      9.46 kcal/mol|
|  sn= 3 | S(rot)=       0.01469610 Eh      9.22 kcal/mol|
|  sn= 4 | S(rot)=       0.01442448 Eh      9.05 kcal/mol|
|  sn= 5 | S(rot)=       0.01421379 Eh      8.92 kcal/mol|
|  sn= 6 | S(rot)=       0.01404165 Eh      8.81 kcal/mol|
|  sn= 7 | S(rot)=       0.01389610 Eh      8.72 kcal/mol|
|  sn= 8 | S(rot)=       0.01377002 Eh      8.64 kcal/mol|
|  sn= 9 | S(rot)=       0.01365881 Eh      8.57 kcal/mol|
|  sn=10 | S(rot)=       0.01355933 Eh      8.51 kcal/mol|
|  sn=11 | S(rot)=       0.01346934 Eh      8.45 kcal/mol|
|  sn=12 | S(rot)=       0.01338719 Eh      8.40 kcal/mol|
 --------------------------------------------------------


-------------------
GIBBS FREE ENERGY
-------------------

The Gibbs free energy is G = H - T*S

Total enthalpy                    ... -13123.92973507 Eh 
Total entropy correction          ...     -0.05948457 Eh    -37.33 kcal/mol
-----------------------------------------------------------------------
Final Gibbs free energy         ... -13123.98921964 Eh

For completeness - the Gibbs free energy minus the electronic energy
G-E(el)                           ...     -0.03797173 Eh    -23.83 kcal/mol



Timings for individual modules:

Sum of individual times         ...     2691.493 sec (=  44.858 min)
GTO integral calculation        ...       20.819 sec (=   0.347 min)   0.8 %
SCF iterations                  ...      673.568 sec (=  11.226 min)  25.0 %
Solution of CP-SCF eqns.        ...       27.322 sec (=   0.455 min)   1.0 %
SCF Gradient evaluation         ...      142.463 sec (=   2.374 min)   5.3 %
Geometry relaxation             ...        0.987 sec (=   0.016 min)   0.0 %
Numerical frequency calculation ...     1826.335 sec (=  30.439 min)  67.9 %
                             ****ORCA TERMINATED NORMALLY****
TOTAL RUN TIME: 0 days 0 hours 44 minutes 34 seconds 820 msec
