
                                 *****************
                                 * O   R   C   A *
                                 *****************

                                            #,                                       
                                            ###                                      
                                            ####                                     
                                            #####                                    
                                            ######                                   
                                           ########,                                 
                                     ,,################,,,,,                         
                               ,,#################################,,                 
                          ,,##########################################,,             
                       ,#########################################, ''#####,          
                    ,#############################################,,   '####,        
                  ,##################################################,,,,####,       
                ,###########''''           ''''###############################       
              ,#####''   ,,,,##########,,,,          '''####'''          '####       
            ,##' ,,,,###########################,,,                        '##       
           ' ,,###''''                  '''############,,,                           
         ,,##''                                '''############,,,,        ,,,,,,###''
      ,#''                                            '''#######################'''  
     '                                                          ''''####''''         
             ,#######,   #######,   ,#######,      ##                                
            ,#'     '#,  ##    ##  ,#'     '#,    #''#        ######   ,####,        
            ##       ##  ##   ,#'  ##            #'  '#       #        #'  '#        
            ##       ##  #######   ##           ,######,      #####,   #    #        
            '#,     ,#'  ##    ##  '#,     ,#' ,#      #,         ##   #,  ,#        
             '#######'   ##     ##  '#######'  #'      '#     #####' # '####'        



                  #######################################################
                  #                        -***-                        #
                  #          Department of theory and spectroscopy      #
                  #    Directorship and core code : Frank Neese         #
                  #        Max Planck Institute fuer Kohlenforschung    #
                  #                Kaiser Wilhelm Platz 1               #
                  #                 D-45470 Muelheim/Ruhr               #
                  #                      Germany                        #
                  #                                                     #
                  #                  All rights reserved                #
                  #                        -***-                        #
                  #######################################################


                         Program Version 5.0.2 -  RELEASE  -


 With contributions from (in alphabetic order):
   Daniel Aravena         : Magnetic Suceptibility
   Michael Atanasov       : Ab Initio Ligand Field Theory (pilot matlab implementation)
   Alexander A. Auer      : GIAO ZORA, VPT2 properties, NMR spectrum
   Ute Becker             : Parallelization
   Giovanni Bistoni       : ED, misc. LED, open-shell LED, HFLD
   Martin Brehm           : Molecular dynamics
   Dmytro Bykov           : SCF Hessian
   Vijay G. Chilkuri      : MRCI spin determinant printing, contributions to CSF-ICE
   Dipayan Datta          : RHF DLPNO-CCSD density
   Achintya Kumar Dutta   : EOM-CC, STEOM-CC
   Dmitry Ganyushin       : Spin-Orbit,Spin-Spin,Magnetic field MRCI
   Miquel Garcia          : C-PCM and meta-GGA Hessian, CC/C-PCM, Gaussian charge scheme
   Yang Guo               : DLPNO-NEVPT2, F12-NEVPT2, CIM, IAO-localization
   Andreas Hansen         : Spin unrestricted coupled pair/coupled cluster methods
   Benjamin Helmich-Paris : MC-RPA, TRAH-SCF, COSX integrals
   Lee Huntington         : MR-EOM, pCC
   Robert Izsak           : Overlap fitted RIJCOSX, COSX-SCS-MP3, EOM
   Marcus Kettner         : VPT2
   Christian Kollmar      : KDIIS, OOCD, Brueckner-CCSD(T), CCSD density, CASPT2, CASPT2-K
   Simone Kossmann        : Meta GGA functionals, TD-DFT gradient, OOMP2, MP2 Hessian
   Martin Krupicka        : Initial AUTO-CI
   Lucas Lang             : DCDCAS
   Marvin Lechner         : AUTO-CI (C++ implementation), FIC-MRCC
   Dagmar Lenk            : GEPOL surface, SMD
   Dimitrios Liakos       : Extrapolation schemes; Compound Job, initial MDCI parallelization
   Dimitrios Manganas     : Further ROCIS development; embedding schemes
   Dimitrios Pantazis     : SARC Basis sets
   Anastasios Papadopoulos: AUTO-CI, single reference methods and gradients
   Taras Petrenko         : DFT Hessian,TD-DFT gradient, ASA, ECA, R-Raman, ABS, FL, XAS/XES, NRVS
   Peter Pinski           : DLPNO-MP2, DLPNO-MP2 Gradient
   Christoph Reimann      : Effective Core Potentials
   Marius Retegan         : Local ZFS, SOC
   Christoph Riplinger    : Optimizer, TS searches, QM/MM, DLPNO-CCSD(T), (RO)-DLPNO pert. Triples
   Tobias Risthaus        : Range-separated hybrids, TD-DFT gradient, RPA, STAB
   Michael Roemelt        : Original ROCIS implementation
   Masaaki Saitow         : Open-shell DLPNO-CCSD energy and density
   Barbara Sandhoefer     : DKH picture change effects
   Avijit Sen             : IP-ROCIS
   Kantharuban Sivalingam : CASSCF convergence, NEVPT2, FIC-MRCI
   Bernardo de Souza      : ESD, SOC TD-DFT
   Georgi Stoychev        : AutoAux, RI-MP2 NMR, DLPNO-MP2 response
   Willem Van den Heuvel  : Paramagnetic NMR
   Boris Wezisla          : Elementary symmetry handling
   Frank Wennmohs         : Technical directorship


 We gratefully acknowledge several colleagues who have allowed us to
 interface, adapt or use parts of their codes:
   Stefan Grimme, W. Hujo, H. Kruse, P. Pracht,  : VdW corrections, initial TS optimization,
                  C. Bannwarth, S. Ehlert          DFT functionals, gCP, sTDA/sTD-DF
   Ed Valeev, F. Pavosevic, A. Kumar             : LibInt (2-el integral package), F12 methods
   Garnet Chan, S. Sharma, J. Yang, R. Olivares  : DMRG
   Ulf Ekstrom                                   : XCFun DFT Library
   Mihaly Kallay                                 : mrcc  (arbitrary order and MRCC methods)
   Jiri Pittner, Ondrej Demel                    : Mk-CCSD
   Frank Weinhold                                : gennbo (NPA and NBO analysis)
   Christopher J. Cramer and Donald G. Truhlar   : smd solvation model
   Lars Goerigk                                  : TD-DFT with DH, B97 family of functionals
   V. Asgeirsson, H. Jonsson                     : NEB implementation
   FAccTs GmbH                                   : IRC, NEB, NEB-TS, DLPNO-Multilevel, CI-OPT
                                                   MM, QMMM, 2- and 3-layer-ONIOM, Crystal-QMMM,
                                                   LR-CPCM, SF, NACMEs, symmetry and pop. for TD-DFT,
                                                   nearIR, NL-DFT gradient (VV10), updates on ESD,
                                                   ML-optimized integration grids
   S Lehtola, MJT Oliveira, MAL Marques          : LibXC Library
   Liviu Ungur et al                             : ANISO software


 Your calculation uses the libint2 library for the computation of 2-el integrals
 For citations please refer to: http://libint.valeyev.net

 Your ORCA version has been built with support for libXC version: 5.1.0
 For citations please refer to: https://tddft.org/programs/libxc/

 This ORCA versions uses:
   CBLAS   interface :  Fast vector & matrix operations
   LAPACKE interface :  Fast linear algebra routines
   SCALAPACK package :  Parallel linear algebra routines
   Shared memory     :  Shared parallel matrices
   BLAS/LAPACK       :  OpenBLAS 0.3.15  USE64BITINT DYNAMIC_ARCH NO_AFFINITY Haswell SINGLE_THREADED
        Core in use  :  Haswell
   Copyright (c) 2011-2014, The OpenBLAS Project


Your calculation utilizes the atom-pairwise dispersion correction
with the Becke-Johnson damping scheme (D3BJ)
Cite in your paper:
S.Grimme, S.Ehrlich, L.Goerigk, J Comput Chem, (2011), 32, 1456–1465 
S.Grimme, J.Antony, S.Ehrlich and H.Krieg, J.Chem.Phys., 132, (2010), 154104 
   

================================================================================

----- Orbital basis set information -----
Your calculation utilizes the basis: def2-TZVP
   F. Weigend and R. Ahlrichs, Phys. Chem. Chem. Phys. 7, 3297 (2005).

----- AuxJ basis set information -----
Your calculation utilizes the auxiliary basis: def2/J
   F. Weigend, Phys. Chem. Chem. Phys. 8, 1057 (2006).

================================================================================
                                        WARNINGS
                       Please study these warnings very carefully!
================================================================================

WARNING: Gradients needed for Numerical Frequencies
  ===> : Setting RunTyp to EnGrad

WARNING: The environment variable RSH_COMMAND is not set!
  ===> : All Displacements for the Numerical Hessian or Gradient calculation
         will be started on localhost

INFO   : the flag for use of the SHARK integral package has been found!

Your calculation utilizes the atom-pairwise dispersion correction
with the Becke-Johnson damping scheme (D3BJ)
Cite in your paper:
S.Grimme, S.Ehrlich, L.Goerigk, J Comput Chem, (2011), 32, 1456–1465 
S.Grimme, J.Antony, S.Ehrlich and H.Krieg, J.Chem.Phys., 132, (2010), 154104 
   

================================================================================

----- Orbital basis set information -----
Your calculation utilizes the basis: def2-TZVP
   F. Weigend and R. Ahlrichs, Phys. Chem. Chem. Phys. 7, 3297 (2005).

----- AuxJ basis set information -----
Your calculation utilizes the auxiliary basis: def2/J
   F. Weigend, Phys. Chem. Chem. Phys. 8, 1057 (2006).

================================================================================
                                        WARNINGS
                       Please study these warnings very carefully!
================================================================================


WARNING: MOInp is set but Guess=PModel. MOInp will be ignored!
         To read the initial guess from a file you must also specify
         'MORead' in the simple input or 'Guess MORead' in the %scf block

WARNING: Gradients needed for Numerical Frequencies
  ===> : Setting RunTyp to EnGrad

WARNING: The environment variable RSH_COMMAND is not set!
  ===> : All Displacements for the Numerical Hessian or Gradient calculation
         will be started on localhost

INFO   : the flag for use of the SHARK integral package has been found!

Your calculation utilizes the atom-pairwise dispersion correction
with the Becke-Johnson damping scheme (D3BJ)
Cite in your paper:
S.Grimme, S.Ehrlich, L.Goerigk, J Comput Chem, (2011), 32, 1456–1465 
S.Grimme, J.Antony, S.Ehrlich and H.Krieg, J.Chem.Phys., 132, (2010), 154104 
   

================================================================================

----- Orbital basis set information -----
Your calculation utilizes the basis: def2-TZVP
   F. Weigend and R. Ahlrichs, Phys. Chem. Chem. Phys. 7, 3297 (2005).

----- AuxJ basis set information -----
Your calculation utilizes the auxiliary basis: def2/J
   F. Weigend, Phys. Chem. Chem. Phys. 8, 1057 (2006).

================================================================================
                                        WARNINGS
                       Please study these warnings very carefully!
================================================================================


WARNING: MOInp is set but Guess=PModel. MOInp will be ignored!
         To read the initial guess from a file you must also specify
         'MORead' in the simple input or 'Guess MORead' in the %scf block

WARNING: Gradients needed for Numerical Frequencies
  ===> : Setting RunTyp to EnGrad

WARNING: The environment variable RSH_COMMAND is not set!
  ===> : All Displacements for the Numerical Hessian or Gradient calculation
         will be started on localhost

INFO   : the flag for use of the SHARK integral package has been found!

Your calculation utilizes the atom-pairwise dispersion correction
with the Becke-Johnson damping scheme (D3BJ)
Cite in your paper:
S.Grimme, S.Ehrlich, L.Goerigk, J Comput Chem, (2011), 32, 1456–1465 
S.Grimme, J.Antony, S.Ehrlich and H.Krieg, J.Chem.Phys., 132, (2010), 154104 
   

================================================================================

----- Orbital basis set information -----
Your calculation utilizes the basis: def2-TZVP
   F. Weigend and R. Ahlrichs, Phys. Chem. Chem. Phys. 7, 3297 (2005).

----- AuxJ basis set information -----
Your calculation utilizes the auxiliary basis: def2/J
   F. Weigend, Phys. Chem. Chem. Phys. 8, 1057 (2006).

================================================================================
                                        WARNINGS
                       Please study these warnings very carefully!
================================================================================


WARNING: MOInp is set but Guess=PModel. MOInp will be ignored!
         To read the initial guess from a file you must also specify
         'MORead' in the simple input or 'Guess MORead' in the %scf block

WARNING: Gradients needed for Numerical Frequencies
  ===> : Setting RunTyp to EnGrad

WARNING: The environment variable RSH_COMMAND is not set!
  ===> : All Displacements for the Numerical Hessian or Gradient calculation
         will be started on localhost

INFO   : the flag for use of the SHARK integral package has been found!

Your calculation utilizes the atom-pairwise dispersion correction
with the Becke-Johnson damping scheme (D3BJ)
Cite in your paper:
S.Grimme, S.Ehrlich, L.Goerigk, J Comput Chem, (2011), 32, 1456–1465 
S.Grimme, J.Antony, S.Ehrlich and H.Krieg, J.Chem.Phys., 132, (2010), 154104 
   

================================================================================

----- Orbital basis set information -----
Your calculation utilizes the basis: def2-TZVP
   F. Weigend and R. Ahlrichs, Phys. Chem. Chem. Phys. 7, 3297 (2005).

----- AuxJ basis set information -----
Your calculation utilizes the auxiliary basis: def2/J
   F. Weigend, Phys. Chem. Chem. Phys. 8, 1057 (2006).

================================================================================
                                        WARNINGS
                       Please study these warnings very carefully!
================================================================================


WARNING: MOInp is set but Guess=PModel. MOInp will be ignored!
         To read the initial guess from a file you must also specify
         'MORead' in the simple input or 'Guess MORead' in the %scf block

WARNING: Gradients needed for Numerical Frequencies
  ===> : Setting RunTyp to EnGrad

WARNING: The environment variable RSH_COMMAND is not set!
  ===> : All Displacements for the Numerical Hessian or Gradient calculation
         will be started on localhost

INFO   : the flag for use of the SHARK integral package has been found!

================================================================================
                                       INPUT FILE
================================================================================
NAME = ex.inp
|  1> ! PBE D3 def2-TZVP numfreq PModel NOAUTOSTART cpcm(water)
|  2> 
|  3> %pal nprocs=16 end
|  4> %geom maxiter=150 end 
|  5> %base "1_M0001"
|  6> 
|  7> * xyz 0 1
|  8> 8        2.915711000     -2.145336000     -0.071780000
|  9> 6        2.182078000     -1.035316000     -0.216318000
| 10> 6        0.729710000     -1.105456000     -0.496832000
| 11> 6       -0.009761000      0.014983000     -0.639845000
| 12> 6       -1.496476000     -0.059044000     -0.905511000
| 13> 6       -2.271812000     -0.345994000      0.408601000
| 14> 7       -2.054248000      0.710545000      1.426609000
| 15> 1       -2.600459000      0.540476000      2.259362000
| 16> 1       -1.091500000      0.765704000      1.725095000
| 17> 1       -2.317673000      1.622921000      1.083567000
| 18> 6        0.660670000      1.326672000     -0.513475000
| 19> 6        1.982081000      1.393560000     -0.260573000
| 20> 6        2.770665000      0.160014000     -0.105508000
| 21> 8        4.241447000      0.249090000      0.178348000
| 22> 1        2.428299000     -2.956218000     -0.163779000
| 23> 1        0.249945000     -2.080013000     -0.586611000
| 24> 1       -1.854382000      0.888174000     -1.339070000
| 25> 1       -1.703849000     -0.854101000     -1.640670000
| 26> 1       -3.348370000     -0.416589000      0.171998000
| 27> 1       -1.952718000     -1.323610000      0.810152000
| 28> 1        0.082070000      2.246096000     -0.608310000
| 29> 1        2.484339000      2.350932000     -0.223869000
| 30> 29      -1.596828096      2.549202398      3.057592141
| 31> 29      -2.882687385      3.721261216      5.339132938
| 32> 29      -0.887514390      1.747448929      5.586731532
| 33> 29       0.687927471      3.721261216      4.337730616
| 34> 29      -3.172037481      4.875542274      2.847199032
| 35> 29      -0.360754860      4.875542274      2.058756409
| 36> 29      -1.176352025      5.891292094      4.556847811
| 37> 29      -0.554296562      4.395979836      6.774857927
| 38> *
| 39> 
| 40> $new_job
| 41> 
| 42> ! PBE D3 def2-TZVP numfreq PModel NOAUTOSTART cpcm(water)
| 43> %pal nprocs=16 end
| 44> %geom maxiter=150 end
| 45> %base "2_M0002"
| 46> 
| 47> * xyz 0 1
| 48> 8        3.036782000     -1.702535000     -0.306303000
| 49> 6        2.228842000     -0.635493000     -0.300185000
| 50> 6        0.786021000     -0.762563000     -0.609398000
| 51> 6       -0.028158000      0.314784000     -0.598195000
| 52> 6       -1.507463000      0.201663000     -0.890934000
| 53> 6       -2.321226000      0.162624000      0.430607000
| 54> 7       -1.965618000     -1.005658000      1.272309000
| 55> 1       -2.537300000     -1.050369000      2.104141000
| 56> 1       -2.095244000     -1.877224000      0.779303000
| 57> 1       -1.007543000     -0.975567000      1.588679000
| 58> 6        0.550259000      1.635478000     -0.274342000
| 59> 6        1.862765000      1.755194000      0.003516000
| 60> 6        2.733302000      0.568036000     -0.009269000
| 61> 8        4.193050000      0.713740000      0.306352000
| 62> 1        2.607585000     -2.522971000     -0.521281000
| 63> 1        0.379714000     -1.746234000     -0.843910000
| 64> 1       -1.820982000      1.072411000     -1.489556000
| 65> 1       -1.729404000     -0.699520000     -1.484919000
| 66> 1       -2.142203000      1.096347000      0.991942000
| 67> 1       -3.396004000      0.123931000      0.178914000
| 68> 1       -0.093763000      2.515081000     -0.246660000
| 69> 1        2.297513000      2.729453000      0.183049000
| 70> 29      -1.264267776     -3.007338404      2.595707437
| 71> 29      -2.521467629     -5.040087592      4.183146779
| 72> 29      -1.858377050     -5.443068048      1.474665114
| 73> 29       0.755210403     -5.040087592      2.446633566
| 74> 29      -1.429438576     -2.815558153      5.401655766
| 75> 29       1.150416259     -2.815558153      4.034432021
| 76> 29       0.140929739     -5.149545905      5.247216101
| 77> 29      -0.744789627     -7.140719306      3.575926087
| 78> *
| 79> 
| 80> $new_job
| 81> 
| 82> ! PBE D3 def2-TZVP numfreq PModel NOAUTOSTART cpcm(water)
| 83> %pal nprocs=16 end
| 84> %geom maxiter=150 end
| 85> %base "3_M0003"
| 86> 
| 87> * xyz 0 1
| 88> 8        3.266227000     -1.923031000      0.058566000
| 89> 6        2.503268000     -0.827159000     -0.032295000
| 90> 6        1.054011000     -0.921893000     -0.322149000
| 91> 6        0.288854000      0.183707000     -0.415727000
| 92> 6       -1.194899000      0.091014000     -0.693917000
| 93> 6       -1.967532000     -0.104657000      0.637082000
| 94> 7       -3.430612000     -0.190154000      0.411878000
| 95> 1       -3.933738000     -0.317680000      1.278720000
| 96> 1       -3.794872000      0.647699000     -0.018286000
| 97> 1       -3.674344000     -0.966536000     -0.186082000
| 98> 6        0.922929000      1.504249000     -0.218418000
| 99> 6        2.238153000      1.594719000      0.046769000
|100> 6        3.059206000      0.376299000      0.141631000
|101> 8        4.526340000      0.490008000      0.435425000
|102> 1        2.801305000     -2.741018000     -0.076727000
|103> 1        0.601652000     -1.903620000     -0.462029000
|104> 1       -1.542037000      1.011985000     -1.188480000
|105> 1       -1.407397000     -0.748654000     -1.375108000
|106> 1       -1.610079000     -1.028101000      1.125669000
|107> 1       -1.740961000      0.742621000      1.308043000
|108> 1        0.317907000      2.410130000     -0.268514000
|109> 1        2.717459000      2.564001000      0.129175000
|110> 29      -5.886749248     -0.325828364     -0.034196307
|111> 29      -7.603274231     -1.005915417     -2.230467686
|112> 29      -6.923822790     -2.861865353     -0.222545660
|113> 29      -8.265936361     -1.005915417      1.418227417
|114> 29      -6.997616428      1.639481147     -1.719705048
|115> 29      -7.519355849      1.639481147      1.153053159
|116> 29      -9.397900051      0.601163068     -0.671878163
|117> 29      -9.706330822     -2.127245494     -0.727894187
|118> *
|119> 
|120> $new_job
|121> 
|122> ! PBE D3 def2-TZVP numfreq PModel NOAUTOSTART cpcm(water)
|123> %pal nprocs=16 end
|124> %geom maxiter=150 end
|125> %base "4_M0004"
|126> 
|127> * xyz 0 1
|128> 8        2.804506000     -2.218687000     -0.081543000
|129> 6        2.120519000     -1.074250000     -0.222137000
|130> 6        0.674742000     -1.137289000     -0.501641000
|131> 6       -0.071467000     -0.023011000     -0.650644000
|132> 6       -1.557129000     -0.106674000     -0.916292000
|133> 6       -2.331361000     -0.388052000      0.399610000
|134> 7       -2.120642000      0.677585000      1.409538000
|135> 1       -2.666218000      0.510628000      2.243336000
|136> 1       -1.158387000      0.740868000      1.707997000
|137> 1       -2.389395000      1.585677000      1.059335000
|138> 6        0.597476000      1.288888000     -0.530592000
|139> 6        1.919106000      1.353869000     -0.278134000
|140> 6        2.714693000      0.124452000     -0.115613000
|141> 8        4.183718000      0.254884000      0.167795000
|142> 1        3.734157000     -2.132929000      0.097952000
|143> 1        0.223876000     -2.125970000     -0.581469000
|144> 1       -1.919042000      0.835501000     -1.357442000
|145> 1       -1.758928000     -0.908993000     -1.645073000
|146> 1       -3.407345000     -0.466972000      0.163048000
|147> 1       -2.006376000     -1.360644000      0.808617000
|148> 1        0.018401000      2.207518000     -0.630200000
|149> 1        2.419023000      2.312562000     -0.244965000
|150> 29      -1.675030080      2.531331440      3.026650907
|151> 29      -2.974052667      3.719899173      5.292137930
|152> 29      -0.975340203      1.753122656      5.565805448
|153> 29       0.601076748      3.719899173      4.306974633
|154> 29      -3.254792267      4.851957216      2.789049300
|155> 29      -0.439955160      4.851957217      2.013392285
|156> 29      -1.269336587      5.887225319      4.498900984
|157> 29      -0.653837235      4.412593068      6.732530518
|158> *
|159> 
|160> $new_job
|161> 
|162> ! PBE D3 def2-TZVP numfreq PModel NOAUTOSTART cpcm(water)
|163> %pal nprocs=16 end
|164> %geom maxiter=150 end
|165> %base "5_M0005"
|166> 
|167> * xyz 0 1
|168> 8        2.618028000     -1.924163000      1.148274000
|169> 6        1.892695000     -0.804126000      1.018802000
|170> 6        0.454162000     -0.917308000      0.718116000
|171> 6       -0.312430000      0.161677000      0.583028000
|172> 6       -1.792763000      0.047744000      0.298897000
|173> 6       -2.076905000      0.288552000     -1.208205000
|174> 7       -1.400607000     -0.710281000     -2.071197000
|175> 1       -1.633481000     -0.576239000     -3.045140000
|176> 1       -0.394596000     -0.654169000     -2.010265000
|177> 1       -1.666778000     -1.654558000     -1.832485000
|178> 6        0.304564000      1.494500000      0.736602000
|179> 6        1.600021000      1.615279000      1.003317000
|180> 6        2.439451000      0.414011000      1.154984000
|181> 8        3.898593000      0.594624000      1.461011000
|182> 1        3.541335000     -1.806583000      1.341918000
|183> 1        0.048366000     -1.922922000      0.613273000
|184> 1       -2.178466000     -0.942209000      0.591250000
|185> 1       -2.330548000      0.799415000      0.899384000
|186> 1       -3.168301000      0.239800000     -1.370850000
|187> 1       -1.742895000      1.305141000     -1.480160000
|188> 1       -0.311453000      2.389346000      0.641705000
|189> 1        2.079814000      2.604480000      1.061713000
|190> 29      -0.199212004     -2.446475986     -3.409956513
|191> 29       1.934666677     -4.322772047     -3.011635966
|192> 29      -0.775333515     -5.053851787     -2.767962700
|193> 29      -0.825325245     -4.322772047     -5.488436654
|194> 29       2.450386283     -1.872779807     -4.176708556
|195> 29       0.277338325     -1.872779806     -6.126789148
|196> 29       2.008166923     -4.080845873     -5.869721659
|197> 29       0.973964632     -6.349053160     -4.717271249
|198> *
|199> 
|200> 
|201> 
|202> 
|203>                          ****END OF INPUT****
================================================================================


                 $$$$$$$$$$$$$$$$$$$$$$$$$$$$$$$$$$$$$$$$$$$$$$ 
                 $ THERE ARE  5 JOBS TO BE PROCESSED THIS RUN $
                 $$$$$$$$$$$$$$$$$$$$$$$$$$$$$$$$$$$$$$$$$$$$$$ 




                 $$$$$$$$$$$$$$$$  JOB NUMBER  1 $$$$$$$$$$$$$$


                     *******************************
                     * Energy+Gradient Calculation *
                     *******************************

---------------------------------
CARTESIAN COORDINATES (ANGSTROEM)
---------------------------------
  O      2.915711   -2.145336   -0.071780
  C      2.182078   -1.035316   -0.216318
  C      0.729710   -1.105456   -0.496832
  C     -0.009761    0.014983   -0.639845
  C     -1.496476   -0.059044   -0.905511
  C     -2.271812   -0.345994    0.408601
  N     -2.054248    0.710545    1.426609
  H     -2.600459    0.540476    2.259362
  H     -1.091500    0.765704    1.725095
  H     -2.317673    1.622921    1.083567
  C      0.660670    1.326672   -0.513475
  C      1.982081    1.393560   -0.260573
  C      2.770665    0.160014   -0.105508
  O      4.241447    0.249090    0.178348
  H      2.428299   -2.956218   -0.163779
  H      0.249945   -2.080013   -0.586611
  H     -1.854382    0.888174   -1.339070
  H     -1.703849   -0.854101   -1.640670
  H     -3.348370   -0.416589    0.171998
  H     -1.952718   -1.323610    0.810152
  H      0.082070    2.246096   -0.608310
  H      2.484339    2.350932   -0.223869
  Cu    -1.596828    2.549202    3.057592
  Cu    -2.882687    3.721261    5.339133
  Cu    -0.887514    1.747449    5.586732
  Cu     0.687927    3.721261    4.337731
  Cu    -3.172037    4.875542    2.847199
  Cu    -0.360755    4.875542    2.058756
  Cu    -1.176352    5.891292    4.556848
  Cu    -0.554297    4.395980    6.774858

----------------------------
CARTESIAN COORDINATES (A.U.)
----------------------------
  NO LB      ZA    FRAG     MASS         X           Y           Z
   0 O     8.0000    0    15.999    5.509895   -4.054098   -0.135645
   1 C     6.0000    0    12.011    4.123530   -1.956464   -0.408782
   2 C     6.0000    0    12.011    1.378952   -2.089009   -0.938876
   3 C     6.0000    0    12.011   -0.018446    0.028314   -1.209132
   4 C     6.0000    0    12.011   -2.827930   -0.111577   -1.711168
   5 C     6.0000    0    12.011   -4.293103   -0.653834    0.772144
   6 N     7.0000    0    14.007   -3.881966    1.342735    2.695900
   7 H     1.0000    0     1.008   -4.914155    1.021352    4.269575
   8 H     1.0000    0     1.008   -2.062636    1.446971    3.259957
   9 H     1.0000    0     1.008   -4.379767    3.066876    2.047645
  10 C     6.0000    0    12.011    1.248485    2.507047   -0.970327
  11 C     6.0000    0    12.011    3.745590    2.633447   -0.492412
  12 C     6.0000    0    12.011    5.235798    0.302383   -0.199381
  13 O     8.0000    0    15.999    8.015173    0.470712    0.337029
  14 H     1.0000    0     1.008    4.588820   -5.586442   -0.309497
  15 H     1.0000    0     1.008    0.472328   -3.930655   -1.108534
  16 H     1.0000    0     1.008   -3.504274    1.678406   -2.530476
  17 H     1.0000    0     1.008   -3.219808   -1.614017   -3.100417
  18 H     1.0000    0     1.008   -6.327502   -0.787239    0.325029
  19 H     1.0000    0     1.008   -3.690102   -2.501260    1.530965
  20 H     1.0000    0     1.008    0.155090    4.244506   -1.149539
  21 H     1.0000    0     1.008    4.694720    4.442618   -0.423051
  22 Cu   29.0000    0    63.550   -3.017568    4.817294    5.778012
  23 Cu   29.0000    0    63.550   -5.447490    7.032165   10.089499
  24 Cu   29.0000    0    63.550   -1.677159    3.302200   10.557393
  25 Cu   29.0000    0    63.550    1.299995    7.032165    8.197123
  26 Cu   29.0000    0    63.550   -5.994282    9.213440    5.380426
  27 Cu   29.0000    0    63.550   -0.681728    9.213440    3.890486
  28 Cu   29.0000    0    63.550   -2.222983   11.132929    8.611194
  29 Cu   29.0000    0    63.550   -1.047469    8.307198   12.802626

--------------------------------
INTERNAL COORDINATES (ANGSTROEM)
--------------------------------
 O      0   0   0     0.000000000000     0.00000000     0.00000000
 C      1   0   0     1.338377006875     0.00000000     0.00000000
 C      2   1   0     1.480871544470   121.25010416     0.00000000
 C      3   2   1     1.350056899072   121.19472179   179.86949607
 C      4   3   2     1.512078011053   121.09957099   180.93339906
 C      5   4   3     1.552538747967   110.57031942    79.14304527
 N      6   5   4     1.483222518937   112.08826820    60.14906177
 H      7   6   5     1.010320483951   111.50064589   177.00253813
 H      7   6   5     1.009465263880   112.44288803   296.31544251
 H      7   6   5     1.009703179041   111.85207897    57.32899260
 C      4   3   2     1.478504357580   118.61080934     0.12607216
 C     11   4   3     1.347056218971   120.32595263     0.00000000
 C      2   1   3     1.336984413361   119.42202592   179.99882376
 O     13   2   1     1.500569376615   120.01627640     0.00000000
 H      1   2   3     0.950559778062   114.58122247     0.00000000
 H      3   2   1     1.089952324790   119.31762277     0.03097452
 H      5   4   3     1.101495370322   110.27538276   200.08730662
 H      5   4   3     1.102532516373   109.71790168   318.00675934
 H      6   5   4     1.104509737847   108.49705429   181.31978110
 H      6   5   4     1.103991499013   109.09847051   298.32002061
 H     11   4   3     1.090464180522   119.99895977   181.02060178
 H     12  11   4     1.081744622618   120.38317161   176.49992583
 Cu     9   7   6     2.282930496325    90.23877960   177.06477231
 Cu    23   9   7     2.869248053469   151.93906489    68.33723099
 Cu    23   9   7     2.746357700242   104.61226308   121.22434805
 Cu    25  23   9     2.817437717124    62.07294122   109.32535937
 Cu    24  23   9     2.761489241476    60.01000889   229.58782646
 Cu    26  25  23     2.761489241040   116.50883337    12.78117783
 Cu    27  24  23     2.817340427363    61.89311821   264.22526876
 Cu    29  27  24     2.746357701147   117.01550012    12.86155628

---------------------------
INTERNAL COORDINATES (A.U.)
---------------------------
 O      0   0   0     0.000000000000     0.00000000     0.00000000
 C      1   0   0     2.529166006932     0.00000000     0.00000000
 C      2   1   0     2.798441658565   121.25010416     0.00000000
 C      3   2   1     2.551237804456   121.19472179   179.86949607
 C      4   3   2     2.857413334015   121.09957099   180.93339906
 C      5   4   3     2.933873045959   110.57031942    79.14304527
 N      6   5   4     2.802884356455   112.08826820    60.14906177
 H      7   6   5     1.909229022158   111.50064589   177.00253813
 H      7   6   5     1.907612890440   112.44288803   296.31544251
 H      7   6   5     1.908062484937   111.85207897    57.32899260
 C      4   3   2     2.793968323635   118.61080934     0.12607216
 C     11   4   3     2.545567340851   120.32595263     0.00000000
 C      2   1   3     2.526534386573   119.42202592   179.99882376
 O     13   2   1     2.835665166752   120.01627640     0.00000000
 H      1   2   3     1.796297654458   114.58122247     0.00000000
 H      3   2   1     2.059711392884   119.31762277     0.03097452
 H      5   4   3     2.081524587691   110.27538276   200.08730662
 H      5   4   3     2.083484509687   109.71790168   318.00675934
 H      6   5   4     2.087220916779   108.49705429   181.31978110
 H      6   5   4     2.086241587312   109.09847051   298.32002061
 H     11   4   3     2.060678660037   119.99895977   181.02060178
 H     12  11   4     2.044201083591   120.38317161   176.49992583
 Cu     9   7   6     4.314113420830    90.23877960   177.06477231
 Cu    23   9   7     5.422093031343   151.93906489    68.33723099
 Cu    23   9   7     5.189863919244   104.61226308   121.22434805
 Cu    25  23   9     5.324185684744    62.07294122   109.32535937
 Cu    24  23   9     5.218458388159    60.01000889   229.58782646
 Cu    26  25  23     5.218458387336   116.50883337    12.78117783
 Cu    27  24  23     5.324001833741    61.89311821   264.22526876
 Cu    29  27  24     5.189863920954   117.01550012    12.86155628

---------------------
BASIS SET INFORMATION
---------------------
There are 5 groups of distinct atoms

 Group   1 Type O   : 11s6p2d1f contracted to 5s3p2d1f pattern {62111/411/11/1}
 Group   2 Type C   : 11s6p2d1f contracted to 5s3p2d1f pattern {62111/411/11/1}
 Group   3 Type N   : 11s6p2d1f contracted to 5s3p2d1f pattern {62111/411/11/1}
 Group   4 Type H   : 5s1p contracted to 3s1p pattern {311/1}
 Group   5 Type Cu  : 17s11p7d1f contracted to 6s4p4d1f pattern {842111/6311/4111/1}

Atom   0O    basis set group =>   1
Atom   1C    basis set group =>   2
Atom   2C    basis set group =>   2
Atom   3C    basis set group =>   2
Atom   4C    basis set group =>   2
Atom   5C    basis set group =>   2
Atom   6N    basis set group =>   3
Atom   7H    basis set group =>   4
Atom   8H    basis set group =>   4
Atom   9H    basis set group =>   4
Atom  10C    basis set group =>   2
Atom  11C    basis set group =>   2
Atom  12C    basis set group =>   2
Atom  13O    basis set group =>   1
Atom  14H    basis set group =>   4
Atom  15H    basis set group =>   4
Atom  16H    basis set group =>   4
Atom  17H    basis set group =>   4
Atom  18H    basis set group =>   4
Atom  19H    basis set group =>   4
Atom  20H    basis set group =>   4
Atom  21H    basis set group =>   4
Atom  22Cu   basis set group =>   5
Atom  23Cu   basis set group =>   5
Atom  24Cu   basis set group =>   5
Atom  25Cu   basis set group =>   5
Atom  26Cu   basis set group =>   5
Atom  27Cu   basis set group =>   5
Atom  28Cu   basis set group =>   5
Atom  29Cu   basis set group =>   5
---------------------------------
AUXILIARY/J BASIS SET INFORMATION
---------------------------------
There are 5 groups of distinct atoms

 Group   1 Type O   : 12s5p4d2f1g contracted to 6s4p3d1f1g pattern {711111/2111/211/2/1}
 Group   2 Type C   : 12s5p4d2f1g contracted to 6s4p3d1f1g pattern {711111/2111/211/2/1}
 Group   3 Type N   : 12s5p4d2f1g contracted to 6s4p3d1f1g pattern {711111/2111/211/2/1}
 Group   4 Type H   : 5s2p1d contracted to 3s1p1d pattern {311/2/1}
 Group   5 Type Cu  : 19s5p5d3f3g contracted to 8s5p4d3f3g pattern {121111111/11111/2111/111/111}

Atom   0O    basis set group =>   1
Atom   1C    basis set group =>   2
Atom   2C    basis set group =>   2
Atom   3C    basis set group =>   2
Atom   4C    basis set group =>   2
Atom   5C    basis set group =>   2
Atom   6N    basis set group =>   3
Atom   7H    basis set group =>   4
Atom   8H    basis set group =>   4
Atom   9H    basis set group =>   4
Atom  10C    basis set group =>   2
Atom  11C    basis set group =>   2
Atom  12C    basis set group =>   2
Atom  13O    basis set group =>   1
Atom  14H    basis set group =>   4
Atom  15H    basis set group =>   4
Atom  16H    basis set group =>   4
Atom  17H    basis set group =>   4
Atom  18H    basis set group =>   4
Atom  19H    basis set group =>   4
Atom  20H    basis set group =>   4
Atom  21H    basis set group =>   4
Atom  22Cu   basis set group =>   5
Atom  23Cu   basis set group =>   5
Atom  24Cu   basis set group =>   5
Atom  25Cu   basis set group =>   5
Atom  26Cu   basis set group =>   5
Atom  27Cu   basis set group =>   5
Atom  28Cu   basis set group =>   5
Atom  29Cu   basis set group =>   5


           ************************************************************
           *        Program running with 16 parallel MPI-processes    *
           *              working on a common directory               *
           ************************************************************
------------------------------------------------------------------------------
                           ORCA GTO INTEGRAL CALCULATION
                           -- RI-GTO INTEGRALS CHOSEN --
------------------------------------------------------------------------------
------------------------------------------------------------------------------
                   ___                                                        
                  /   \      - P O W E R E D   B Y -                         
                 /     \                                                     
                 |  |  |   _    _      __       _____    __    __             
                 |  |  |  | |  | |    /  \     |  _  \  |  |  /  |          
                  \  \/   | |  | |   /    \    | | | |  |  | /  /          
                 / \  \   | |__| |  /  /\  \   | |_| |  |  |/  /          
                |  |  |   |  __  | /  /__\  \  |    /   |      \           
                |  |  |   | |  | | |   __   |  |    \   |  |\   \          
                \     /   | |  | | |  |  |  |  | |\  \  |  | \   \       
                 \___/    |_|  |_| |__|  |__|  |_| \__\ |__|  \__/        
                                                                              
                      - O R C A' S   B I G   F R I E N D -                    
                                      &                                       
                       - I N T E G R A L  F E E D E R -                       
                                                                              
 v1 FN, 2020, v2 2021                                                         
------------------------------------------------------------------------------


Reading SHARK input file 1_M0001.SHARKINP.tmp ... ok
----------------------
SHARK INTEGRAL PACKAGE
----------------------

Number of atoms                             ...     30
Number of basis functions                   ...    767
Number of shells                            ...    285
Maximum angular momentum                    ...      3
Integral batch strategy                     ... SHARK/LIBINT Hybrid
RI-J (if used) integral strategy            ... SPLIT-RIJ (Revised 2003 algorithm where possible)
Printlevel                                  ...      1
Contraction scheme used                     ... SEGMENTED contraction
Coulomb Range Separation                    ... NOT USED
Exchange Range Separation                   ... NOT USED
Finite Nucleus Model                        ... NOT USED
Auxiliary Coulomb fitting basis             ... AVAILABLE
   # of basis functions in Aux-J            ...   1388
   # of shells in Aux-J                     ...    404
   Maximum angular momentum in Aux-J        ...      4
Auxiliary J/K fitting basis                 ... NOT available
Auxiliary Correlation fitting basis         ... NOT available
Auxiliary 'external' fitting basis          ... NOT available
Integral threshold                          ...     2.500000e-11
Primitive cut-off                           ...     2.500000e-12
Primitive pair pre-selection threshold      ...     2.500000e-12

Calculating pre-screening integrals         ... done (  0.1 sec) Dimension = 285
Organizing shell pair data                  ... done (  1.0 sec)
Shell pair information
Total number of shell pairs                 ...     40755
Shell pairs after pre-screening             ...     25885
Total number of primitive shell pairs       ...    165772
Primitive shell pairs kept                  ...     61065
          la=0 lb=0:   6123 shell pairs
          la=1 lb=0:   6637 shell pairs
          la=1 lb=1:   1879 shell pairs
          la=2 lb=0:   4809 shell pairs
          la=2 lb=1:   2670 shell pairs
          la=2 lb=2:    996 shell pairs
          la=3 lb=0:   1375 shell pairs
          la=3 lb=1:    761 shell pairs
          la=3 lb=2:    549 shell pairs
          la=3 lb=3:     86 shell pairs

Calculating one electron integrals          ... done (  0.1 sec)
Calculating RI/J V-Matrix + Cholesky decomp.... done (  0.1 sec)
Calculating Nuclear repulsion               ... done (  0.0 sec) ENN=   6011.538884358766 Eh

SHARK setup successfully completed in   1.9 seconds

Maximum memory used throughout the entire GTOINT-calculation: 45.4 MB


           ************************************************************
           *        Program running with 16 parallel MPI-processes    *
           *              working on a common directory               *
           ************************************************************
-------------------------------------------------------------------------------
                                 ORCA SCF
-------------------------------------------------------------------------------

------------
SCF SETTINGS
------------
Hamiltonian:
 Density Functional     Method          .... DFT(GTOs)
 Exchange Functional    Exchange        .... PBE
   PBE kappa parameter   XKappa         ....  0.804000
   PBE mue parameter    XMuePBE         ....  0.219520
 Correlation Functional Correlation     .... PBE
   PBE beta parameter  CBetaPBE         ....  0.066725
 LDA part of GGA corr.  LDAOpt          .... PW91-LDA
 Gradients option       PostSCFGGA      .... off
   Density functional embedding theory  .... OFF
   NL short-range parameter             ....  6.400000
 RI-approximation to the Coulomb term is turned on
   Number of AuxJ basis functions       .... 1388


General Settings:
 Integral files         IntName         .... 1_M0001
 Hartree-Fock type      HFTyp           .... RHF
 Total Charge           Charge          ....    0
 Multiplicity           Mult            ....    1
 Number of Electrons    NEL             ....  314
 Basis Dimension        Dim             ....  767
 Nuclear Repulsion      ENuc            ....   6011.5388843588 Eh

Convergence Acceleration:
 DIIS                   CNVDIIS         .... on
   Start iteration      DIISMaxIt       ....    12
   Startup error        DIISStart       ....  0.200000
   # of expansion vecs  DIISMaxEq       ....     5
   Bias factor          DIISBfac        ....   1.050
   Max. coefficient     DIISMaxC        ....  10.000
 Trust-Rad. Augm. Hess. CNVTRAH         .... auto
   Auto Start mean grad. ratio tolernc. ....  1.125000
   Auto Start start iteration           ....    20
   Auto Start num. interpolation iter.  ....    10
   Max. Number of Micro iterations      ....    16
   Max. Number of Macro iterations      .... Maxiter - #DIIS iter
   Number of Davidson start vectors     ....     2
   Converg. threshold I  (grad. norm)   ....   1.000e-05
   Converg. threshold II (energy diff.) ....   1.000e-08
   Grad. Scal. Fac. for Micro threshold ....   0.100
   Minimum threshold for Micro iter.    ....   0.010
   NR start threshold (gradient norm)   ....   0.001
   Initial trust radius                 ....   0.400
   Minimum AH scaling param. (alpha)    ....   1.000
   Maximum AH scaling param. (alpha)    .... 1000.000
   Orbital update algorithm             .... Taylor
   White noise on init. David. guess    .... on
   Maximum white noise                  ....   0.010
   Quad. conv. algorithm                .... NR
 SOSCF                  CNVSOSCF        .... off
 Level Shifting         CNVShift        .... on
   Level shift para.    LevelShift      ....    0.2500
   Turn off err/grad.   ShiftErr        ....    0.0010
 Zerner damping         CNVZerner       .... off
 Static damping         CNVDamp         .... on
   Fraction old density DampFac         ....    0.7000
   Max. Damping (<1)    DampMax         ....    0.9800
   Min. Damping (>=0)   DampMin         ....    0.0000
   Turn off err/grad.   DampErr         ....    0.1000
 Fernandez-Rico         CNVRico         .... off

SCF Procedure:
 Maximum # iterations   MaxIter         ....   125
 SCF integral mode      SCFMode         .... Direct
   Integral package                     .... SHARK and LIBINT hybrid scheme
 Reset frequency        DirectResetFreq ....    20
 Integral Threshold     Thresh          ....  2.500e-11 Eh
 Primitive CutOff       TCut            ....  2.500e-12 Eh

Convergence Tolerance:
 Convergence Check Mode ConvCheckMode   .... Total+1el-Energy
 Convergence forced     ConvForced      .... 0
 Energy Change          TolE            ....  1.000e-08 Eh
 1-El. energy change                    ....  1.000e-05 Eh
 DIIS Error             TolErr          ....  5.000e-07


Diagonalization of the overlap matrix:
Smallest eigenvalue                        ... 9.400e-06
Time for diagonalization                   ...    0.152 sec
Threshold for overlap eigenvalues          ... 1.000e-08
Number of eigenvalues below threshold      ... 0
Time for construction of square roots      ...    0.157 sec
Total time needed                          ...    0.313 sec

Time for model grid setup =    0.467 sec

------------------------------
INITIAL GUESS: MODEL POTENTIAL
------------------------------
Loading Hartree-Fock densities                     ... done
Calculating cut-offs                               ... done
Initializing the effective Hamiltonian             ... done
Setting up the integral package (SHARK)            ... done
Starting the Coulomb interaction                   ... done (   0.6 sec)
Reading the grid                                   ... done
Mapping shells                                     ... done
Starting the XC term evaluation                    ... done (   0.3 sec)
  promolecular density results
     # of electrons  =    313.995219691
     EX              =   -590.939213418
     EC              =    -13.616820526
     EX+EC           =   -604.556033944
Transforming the Hamiltonian                       ... done (   0.2 sec)
Diagonalizing the Hamiltonian                      ... done (   0.2 sec)
Back transforming the eigenvectors                 ... done (   0.0 sec)
Now organizing SCF variables                       ... done
                      ------------------
                      INITIAL GUESS DONE (   1.8 sec)
                      ------------------
-------------------
DFT GRID GENERATION
-------------------

General Integration Accuracy     IntAcc      ... 4.388
Radial Grid Type                 RadialGrid  ... OptM3 with GC (2021)
Angular Grid (max. ang.)         AngularGrid ... 4 (Lebedev-302)
Angular grid pruning method      GridPruning ... 4 (adaptive)
Weight generation scheme         WeightScheme... Becke
Basis function cutoff            BFCut       ... 1.0000e-11
Integration weight cutoff        WCut        ... 1.0000e-14
Angular grids for H and He will be reduced by one unit
Partially contracted basis set               ... off
Rotationally invariant grid construction     ... off

Total number of grid points                  ...   189697
Total number of batches                      ...     2981
Average number of points per batch           ...       63
Average number of grid points per atom       ...     6323
Time for grid setup =    2.150 sec


--------------------
CPCM SOLVATION MODEL
--------------------
CPCM parameters:
  Epsilon                                         ...      80.4000
  Refrac                                          ...       1.3300
  Rsolv                                           ...       1.3000
  Surface type                                    ... GAUSSIAN VDW
  Epsilon function type                           ...         CPCM
Radii:
 Radius for O  used is    3.4469 Bohr (=   1.8240 Ang.)
 Radius for C  used is    3.8550 Bohr (=   2.0400 Ang.)
 Radius for N  used is    3.5149 Bohr (=   1.8600 Ang.)
 Radius for H  used is    2.4944 Bohr (=   1.3200 Ang.)
 Radius for Cu used is    3.1747 Bohr (=   1.6800 Ang.)
Calculating surface                               ...        done! (  0.0s)
GEPOL surface points                              ...         2070
GEPOL Volume                                      ...    2261.5260
GEPOL Surface-area                                ...    1344.4913
Calculating surface distance matrix               ...        done! (  0.1s)
Performing Cholesky decomposition & store         ...        done! (  0.4s)
Overall time for CPCM initialization              ...                 0.5s
--------------
SCF ITERATIONS
--------------
ITER       Energy         Delta-E        Max-DP      RMS-DP      [F,P]     Damp
               ***  Starting incremental Fock matrix formation  ***
  0 -13638.0790065392   0.000000000000 2.14337676  0.00819370  0.3769460 0.7000
  1 -13638.3474340362  -0.268427496987 1.47188567  0.00581712  0.1014510 0.7000
                               ***Turning on DIIS***
  2 -13638.4413781865  -0.093944150340 0.38369629  0.00242404  0.0425341 0.0000
  3 -13638.6205096198  -0.179131433311 1.40127683  0.00548449  0.0763425 0.0000
  4 -13638.6639651807  -0.043455560843 0.20230441  0.00084781  0.0435664 0.0000
  5 -13638.6677727026  -0.003807521933 0.06472726  0.00027749  0.0111465 0.0000
  6 -13638.6685498053  -0.000777102643 0.05291253  0.00021483  0.0041714 0.0000
  7 -13638.6685903160  -0.000040510697 0.01122695  0.00005156  0.0040190 0.0000
  8 -13638.6686328227  -0.000042506783 0.00170013  0.00001521  0.0016403 0.0000
  9 -13638.6686439853  -0.000011162556 0.00192341  0.00002119  0.0007563 0.0000
 10 -13638.6686473361  -0.000003350795 0.00108409  0.00000430  0.0005919 0.0000
 11 -13638.6686489940  -0.000001657922 0.00163861  0.00000720  0.0003133 0.0000
 12 -13638.6686489595   0.000000034555 0.00029927  0.00000173  0.0005084 0.0000
 13 -13638.6686493394  -0.000000379994 0.00044428  0.00000209  0.0001955 0.0000
 14 -13638.6686494204  -0.000000080974 0.00027024  0.00000138  0.0000746 0.0000
 15 -13638.6686494080   0.000000012431 0.00029305  0.00000153  0.0000530 0.0000
 16 -13638.6686494471  -0.000000039074 0.00050168  0.00000255  0.0000281 0.0000
 17 -13638.6686494544  -0.000000007363 0.00036467  0.00000184  0.0000106 0.0000
 18 -13638.6686493937   0.000000060732 0.00010402  0.00000059  0.0000106 0.0000
 19 -13638.6686493790   0.000000014672 0.00125050  0.00000647  0.0000086 0.0000
               *** Restarting incremental Fock matrix formation ***
                                   *** Resetting DIIS ***
 20 -13638.6686494022  -0.000000023178 0.00267824  0.00001405  0.0000065 0.0000
 21 -13638.6686494615  -0.000000059310 0.00015505  0.00000066  0.0000320 0.0000
 22 -13638.6686494126   0.000000048878 0.00038047  0.00000172  0.0000013 0.0000
                            ***DIIS convergence achieved***

               *****************************************************
               *                     SUCCESS                       *
               *           SCF CONVERGED AFTER  23 CYCLES          *
               *****************************************************


----------------
TOTAL SCF ENERGY
----------------

Total Energy       :       -13638.66864933 Eh         -371127.04168 eV

Components:
Nuclear Repulsion  :         6011.53888436 Eh          163582.28941 eV
Electronic Energy  :       -19650.20753368 Eh         -534709.33109 eV
One Electron Energy:       -31002.96792759 Eh         -843633.64682 eV
Two Electron Energy:        11352.76039390 Eh          308924.31573 eV
CPCM Dielectric    :           -0.15419493 Eh              -4.19586 eV

Virial components:
Potential Energy   :       -27254.59437146 Eh         -741635.21685 eV
Kinetic Energy     :        13615.92572214 Eh          370508.17517 eV
Virial Ratio       :            2.00167032


DFT components:
N(Alpha)           :      157.000036734053 electrons
N(Beta)            :      157.000036734053 electrons
N(Total)           :      314.000073468106 electrons
E(X)               :     -592.579299548147 Eh       
E(C)               :      -13.656094052811 Eh       
E(XC)              :     -606.235393600959 Eh       
DFET-embed. en.    :        0.000000000000 Eh       
CPCM Solvation Model Properties:
Surface-charge          :           -0.14419874
Charge-correction       :           -0.00078272 Eh              -0.02130 eV
Free-energy (cav+disp)  :  This term is not implemented in the current solvation scheme

---------------
SCF CONVERGENCE
---------------

  Last Energy change         ...    8.7368e-08  Tolerance :   1.0000e-08
  Last MAX-Density change    ...    7.3169e-04  Tolerance :   1.0000e-07
  Last RMS-Density change    ...    3.2082e-06  Tolerance :   5.0000e-09
  Last DIIS Error            ...    6.5991e-07  Tolerance :   5.0000e-07

             **** THE GBW FILE WAS UPDATED (1_M0001.gbw) ****
             **** DENSITY 1_M0001.scfp WAS UPDATED ****
             **** ENERGY FILE WAS UPDATED (1_M0001.en.tmp) ****
             **** THE GBW FILE WAS UPDATED (1_M0001.gbw) ****
             **** DENSITY 1_M0001.scfp WAS UPDATED ****
----------------
ORBITAL ENERGIES
----------------

  NO   OCC          E(Eh)            E(eV) 
   0   2.0000    -321.488961     -8748.1594 
   1   2.0000    -321.479071     -8747.8903 
   2   2.0000    -321.478913     -8747.8860 
   3   2.0000    -321.478852     -8747.8843 
   4   2.0000    -321.478652     -8747.8789 
   5   2.0000    -321.478355     -8747.8708 
   6   2.0000    -321.478246     -8747.8678 
   7   2.0000    -321.478022     -8747.8617 
   8   2.0000     -38.255928     -1040.9967 
   9   2.0000     -38.244142     -1040.6760 
  10   2.0000     -38.244099     -1040.6748 
  11   2.0000     -38.243907     -1040.6696 
  12   2.0000     -38.243675     -1040.6633 
  13   2.0000     -38.243607     -1040.6615 
  14   2.0000     -38.243575     -1040.6606 
  15   2.0000     -38.243119     -1040.6482 
  16   2.0000     -33.547052      -912.8617 
  17   2.0000     -33.546795      -912.8547 
  18   2.0000     -33.546719      -912.8526 
  19   2.0000     -33.535211      -912.5395 
  20   2.0000     -33.535178      -912.5386 
  21   2.0000     -33.535131      -912.5373 
  22   2.0000     -33.535084      -912.5360 
  23   2.0000     -33.535044      -912.5349 
  24   2.0000     -33.535039      -912.5348 
  25   2.0000     -33.534994      -912.5336 
  26   2.0000     -33.534907      -912.5312 
  27   2.0000     -33.534793      -912.5281 
  28   2.0000     -33.534765      -912.5273 
  29   2.0000     -33.534755      -912.5271 
  30   2.0000     -33.534742      -912.5267 
  31   2.0000     -33.534736      -912.5266 
  32   2.0000     -33.534687      -912.5252 
  33   2.0000     -33.534673      -912.5249 
  34   2.0000     -33.534642      -912.5240 
  35   2.0000     -33.534585      -912.5225 
  36   2.0000     -33.534548      -912.5215 
  37   2.0000     -33.534276      -912.5140 
  38   2.0000     -33.534163      -912.5110 
  39   2.0000     -33.534134      -912.5102 
  40   2.0000     -18.763696      -510.5861 
  41   2.0000     -18.647853      -507.4339 
  42   2.0000     -14.098490      -383.6394 
  43   2.0000      -9.943229      -270.5690 
  44   2.0000      -9.917879      -269.8792 
  45   2.0000      -9.897862      -269.3345 
  46   2.0000      -9.895476      -269.2696 
  47   2.0000      -9.879262      -268.8284 
  48   2.0000      -9.873516      -268.6720 
  49   2.0000      -9.869341      -268.5584 
  50   2.0000      -9.865589      -268.4563 
  51   2.0000      -4.085447      -111.1707 
  52   2.0000      -4.074034      -110.8601 
  53   2.0000      -4.073921      -110.8570 
  54   2.0000      -4.073895      -110.8563 
  55   2.0000      -4.073887      -110.8561 
  56   2.0000      -4.073830      -110.8546 
  57   2.0000      -4.073680      -110.8505 
  58   2.0000      -4.073582      -110.8478 
  59   2.0000      -2.620798       -71.3155 
  60   2.0000      -2.620135       -71.2975 
  61   2.0000      -2.619531       -71.2811 
  62   2.0000      -2.610416       -71.0330 
  63   2.0000      -2.610366       -71.0317 
  64   2.0000      -2.610256       -71.0287 
  65   2.0000      -2.609233       -71.0008 
  66   2.0000      -2.609206       -71.0001 
  67   2.0000      -2.609141       -70.9983 
  68   2.0000      -2.609111       -70.9975 
  69   2.0000      -2.609070       -70.9964 
  70   2.0000      -2.609002       -70.9946 
  71   2.0000      -2.608994       -70.9943 
  72   2.0000      -2.608901       -70.9918 
  73   2.0000      -2.608826       -70.9898 
  74   2.0000      -2.608757       -70.9879 
  75   2.0000      -2.608668       -70.9855 
  76   2.0000      -2.608590       -70.9833 
  77   2.0000      -2.608549       -70.9822 
  78   2.0000      -2.608494       -70.9807 
  79   2.0000      -2.608312       -70.9758 
  80   2.0000      -2.606524       -70.9271 
  81   2.0000      -2.606445       -70.9250 
  82   2.0000      -2.606227       -70.9190 
  83   2.0000      -0.967786       -26.3348 
  84   2.0000      -0.932810       -25.3831 
  85   2.0000      -0.782053       -21.2807 
  86   2.0000      -0.750151       -20.4127 
  87   2.0000      -0.704840       -19.1797 
  88   2.0000      -0.655471       -17.8363 
  89   2.0000      -0.641754       -17.4630 
  90   2.0000      -0.586640       -15.9633 
  91   2.0000      -0.544009       -14.8032 
  92   2.0000      -0.538157       -14.6440 
  93   2.0000      -0.530277       -14.4296 
  94   2.0000      -0.506719       -13.7885 
  95   2.0000      -0.473979       -12.8976 
  96   2.0000      -0.459787       -12.5114 
  97   2.0000      -0.413381       -11.2487 
  98   2.0000      -0.403361       -10.9760 
  99   2.0000      -0.384584       -10.4651 
 100   2.0000      -0.368738       -10.0339 
 101   2.0000      -0.366661        -9.9774 
 102   2.0000      -0.352465        -9.5910 
 103   2.0000      -0.332782        -9.0555 
 104   2.0000      -0.326030        -8.8717 
 105   2.0000      -0.303566        -8.2605 
 106   2.0000      -0.291440        -7.9305 
 107   2.0000      -0.284373        -7.7382 
 108   2.0000      -0.275453        -7.4955 
 109   2.0000      -0.262058        -7.1310 
 110   2.0000      -0.230184        -6.2636 
 111   2.0000      -0.224082        -6.0976 
 112   2.0000      -0.216266        -5.8849 
 113   2.0000      -0.216002        -5.8777 
 114   2.0000      -0.206512        -5.6195 
 115   2.0000      -0.204996        -5.5782 
 116   2.0000      -0.204385        -5.5616 
 117   2.0000      -0.203102        -5.5267 
 118   2.0000      -0.201852        -5.4927 
 119   2.0000      -0.201735        -5.4895 
 120   2.0000      -0.199557        -5.4302 
 121   2.0000      -0.199084        -5.4174 
 122   2.0000      -0.198208        -5.3935 
 123   2.0000      -0.197542        -5.3754 
 124   2.0000      -0.192385        -5.2351 
 125   2.0000      -0.190842        -5.1931 
 126   2.0000      -0.189895        -5.1673 
 127   2.0000      -0.189291        -5.1509 
 128   2.0000      -0.187741        -5.1087 
 129   2.0000      -0.187530        -5.1029 
 130   2.0000      -0.185409        -5.0452 
 131   2.0000      -0.184727        -5.0267 
 132   2.0000      -0.184215        -5.0127 
 133   2.0000      -0.181408        -4.9364 
 134   2.0000      -0.179427        -4.8825 
 135   2.0000      -0.179333        -4.8799 
 136   2.0000      -0.178143        -4.8475 
 137   2.0000      -0.177900        -4.8409 
 138   2.0000      -0.176354        -4.7988 
 139   2.0000      -0.176162        -4.7936 
 140   2.0000      -0.175302        -4.7702 
 141   2.0000      -0.174287        -4.7426 
 142   2.0000      -0.172861        -4.7038 
 143   2.0000      -0.172641        -4.6978 
 144   2.0000      -0.172075        -4.6824 
 145   2.0000      -0.170768        -4.6468 
 146   2.0000      -0.170716        -4.6454 
 147   2.0000      -0.170344        -4.6353 
 148   2.0000      -0.169517        -4.6128 
 149   2.0000      -0.169053        -4.6002 
 150   2.0000      -0.168278        -4.5791 
 151   2.0000      -0.168142        -4.5754 
 152   2.0000      -0.159956        -4.3526 
 153   2.0000      -0.148798        -4.0490 
 154   2.0000      -0.148408        -4.0384 
 155   2.0000      -0.147570        -4.0156 
 156   2.0000      -0.136101        -3.7035 
 157   0.0000      -0.089143        -2.4257 
 158   0.0000      -0.087096        -2.3700 
 159   0.0000      -0.085748        -2.3333 
 160   0.0000      -0.075933        -2.0662 
 161   0.0000      -0.049296        -1.3414 
 162   0.0000      -0.044985        -1.2241 
 163   0.0000      -0.028730        -0.7818 
 164   0.0000      -0.006132        -0.1669 
 165   0.0000      -0.004401        -0.1198 
 166   0.0000      -0.002999        -0.0816 
 167   0.0000       0.001987         0.0541 
 168   0.0000       0.006675         0.1816 
 169   0.0000       0.012675         0.3449 
 170   0.0000       0.023071         0.6278 
 171   0.0000       0.025385         0.6908 
 172   0.0000       0.029914         0.8140 
 173   0.0000       0.033774         0.9190 
 174   0.0000       0.037988         1.0337 
 175   0.0000       0.049078         1.3355 
 176   0.0000       0.053189         1.4473 
 177   0.0000       0.055701         1.5157 
 178   0.0000       0.066224         1.8021 
 179   0.0000       0.072226         1.9654 
 180   0.0000       0.085057         2.3145 
 181   0.0000       0.094357         2.5676 
 182   0.0000       0.094726         2.5776 
 183   0.0000       0.098452         2.6790 
 184   0.0000       0.099228         2.7001 
 185   0.0000       0.099864         2.7174 
 186   0.0000       0.107288         2.9194 
 187   0.0000       0.109511         2.9800 
 188   0.0000       0.114779         3.1233 
 189   0.0000       0.116052         3.1579 
 190   0.0000       0.121000         3.2926 
 191   0.0000       0.126446         3.4408 
 192   0.0000       0.129584         3.5262 
 193   0.0000       0.130150         3.5416 
 194   0.0000       0.135314         3.6821 
 195   0.0000       0.140963         3.8358 
 196   0.0000       0.145883         3.9697 
 197   0.0000       0.149415         4.0658 
 198   0.0000       0.154927         4.2158 
 199   0.0000       0.159409         4.3377 
 200   0.0000       0.166278         4.5246 
 201   0.0000       0.169308         4.6071 
 202   0.0000       0.174800         4.7565 
 203   0.0000       0.178611         4.8603 
 204   0.0000       0.182844         4.9754 
 205   0.0000       0.184705         5.0261 
 206   0.0000       0.195548         5.3211 
 207   0.0000       0.199210         5.4208 
 208   0.0000       0.200458         5.4547 
 209   0.0000       0.203176         5.5287 
 210   0.0000       0.204451         5.5634 
 211   0.0000       0.208704         5.6791 
 212   0.0000       0.217036         5.9058 
 213   0.0000       0.218966         5.9584 
 214   0.0000       0.221249         6.0205 
 215   0.0000       0.226159         6.1541 
 216   0.0000       0.227627         6.1940 
 217   0.0000       0.230515         6.2726 
 218   0.0000       0.234566         6.3829 
 219   0.0000       0.239768         6.5244 
 220   0.0000       0.244731         6.6595 
 221   0.0000       0.248764         6.7692 
 222   0.0000       0.251067         6.8319 
 223   0.0000       0.255802         6.9607 
 224   0.0000       0.262081         7.1316 
 225   0.0000       0.266381         7.2486 
 226   0.0000       0.271811         7.3964 
 227   0.0000       0.273317         7.4373 
 228   0.0000       0.276121         7.5136 
 229   0.0000       0.278887         7.5889 
 230   0.0000       0.285908         7.7799 
 231   0.0000       0.287418         7.8210 
 232   0.0000       0.289939         7.8896 
 233   0.0000       0.291361         7.9283 
 234   0.0000       0.297559         8.0970 
 235   0.0000       0.307944         8.3796 
 236   0.0000       0.308722         8.4008 
 237   0.0000       0.310043         8.4367 
 238   0.0000       0.311970         8.4891 
 239   0.0000       0.318225         8.6593 
 240   0.0000       0.320620         8.7245 
 241   0.0000       0.327516         8.9122 
 242   0.0000       0.331215         9.0128 
 243   0.0000       0.335099         9.1185 
 244   0.0000       0.336251         9.1498 
 245   0.0000       0.337165         9.1747 
 246   0.0000       0.340739         9.2720 
 247   0.0000       0.347790         9.4638 
 248   0.0000       0.349482         9.5099 
 249   0.0000       0.355921         9.6851 
 250   0.0000       0.356870         9.7109 
 251   0.0000       0.360175         9.8009 
 252   0.0000       0.363649         9.8954 
 253   0.0000       0.367429         9.9982 
 254   0.0000       0.371872        10.1191 
 255   0.0000       0.373576        10.1655 
 256   0.0000       0.378939        10.3115 
 257   0.0000       0.381300        10.3757 
 258   0.0000       0.384625        10.4662 
 259   0.0000       0.388243        10.5646 
 260   0.0000       0.390898        10.6369 
 261   0.0000       0.393193        10.6993 
 262   0.0000       0.394436        10.7331 
 263   0.0000       0.399126        10.8608 
 264   0.0000       0.401773        10.9328 
 265   0.0000       0.406182        11.0528 
 266   0.0000       0.407497        11.0886 
 267   0.0000       0.410551        11.1717 
 268   0.0000       0.414177        11.2703 
 269   0.0000       0.420106        11.4317 
 270   0.0000       0.422160        11.4875 
 271   0.0000       0.429113        11.6767 
 272   0.0000       0.433245        11.7892 
 273   0.0000       0.434546        11.8246 
 274   0.0000       0.440515        11.9870 
 275   0.0000       0.445898        12.1335 
 276   0.0000       0.448116        12.1939 
 277   0.0000       0.451709        12.2916 
 278   0.0000       0.455630        12.3983 
 279   0.0000       0.460566        12.5326 
 280   0.0000       0.467567        12.7231 
 281   0.0000       0.470759        12.8100 
 282   0.0000       0.484925        13.1955 
 283   0.0000       0.492999        13.4152 
 284   0.0000       0.496117        13.5000 
 285   0.0000       0.502138        13.6639 
 286   0.0000       0.511817        13.9273 
 287   0.0000       0.515265        14.0211 
 288   0.0000       0.522295        14.2124 
 289   0.0000       0.526688        14.3319 
 290   0.0000       0.537828        14.6351 
 291   0.0000       0.545171        14.8349 
 292   0.0000       0.551024        14.9941 
 293   0.0000       0.562103        15.2956 
 294   0.0000       0.565459        15.3869 
 295   0.0000       0.575862        15.6700 
 296   0.0000       0.586826        15.9683 
 297   0.0000       0.590046        16.0560 
 298   0.0000       0.597415        16.2565 
 299   0.0000       0.610395        16.6097 
 300   0.0000       0.623367        16.9627 
 301   0.0000       0.632526        17.2119 
 302   0.0000       0.636487        17.3197 
 303   0.0000       0.652507        17.7556 
 304   0.0000       0.668368        18.1872 
 305   0.0000       0.677551        18.4371 
 306   0.0000       0.689455        18.7610 
 307   0.0000       0.701961        19.1013 
 308   0.0000       0.717809        19.5326 
 309   0.0000       0.723339        19.6830 
 310   0.0000       0.724199        19.7064 
 311   0.0000       0.733140        19.9498 
 312   0.0000       0.741331        20.1727 
 313   0.0000       0.748530        20.3685 
 314   0.0000       0.754937        20.5429 
 315   0.0000       0.767742        20.8913 
 316   0.0000       0.771772        21.0010 
 317   0.0000       0.774549        21.0766 
 318   0.0000       0.781929        21.2774 
 319   0.0000       0.789549        21.4847 
 320   0.0000       0.796974        21.6868 
 321   0.0000       0.805520        21.9193 
 322   0.0000       0.809897        22.0384 
 323   0.0000       0.824146        22.4262 
 324   0.0000       0.825558        22.4646 
 325   0.0000       0.827298        22.5119 
 326   0.0000       0.837354        22.7855 
 327   0.0000       0.839647        22.8480 
 328   0.0000       0.845088        22.9960 
 329   0.0000       0.853046        23.2126 
 330   0.0000       0.857545        23.3350 
 331   0.0000       0.871555        23.7162 
 332   0.0000       0.873105        23.7584 
 333   0.0000       0.876510        23.8510 
 334   0.0000       0.883437        24.0395 
 335   0.0000       0.891549        24.2603 
 336   0.0000       0.896146        24.3854 
 337   0.0000       0.900271        24.4976 
 338   0.0000       0.912688        24.8355 
 339   0.0000       0.915391        24.9090 
 340   0.0000       0.928911        25.2769 
 341   0.0000       0.938438        25.5362 
 342   0.0000       0.941415        25.6172 
 343   0.0000       0.948545        25.8112 
 344   0.0000       0.955453        25.9992 
 345   0.0000       0.959136        26.0994 
 346   0.0000       0.964889        26.2560 
 347   0.0000       0.970956        26.4211 
 348   0.0000       0.977422        26.5970 
 349   0.0000       0.982654        26.7394 
 350   0.0000       0.992353        27.0033 
 351   0.0000       1.001083        27.2408 
 352   0.0000       1.022581        27.8258 
 353   0.0000       1.037380        28.2285 
 354   0.0000       1.044367        28.4187 
 355   0.0000       1.045785        28.4573 
 356   0.0000       1.052945        28.6521 
 357   0.0000       1.059179        28.8217 
 358   0.0000       1.063753        28.9462 
 359   0.0000       1.068591        29.0778 
 360   0.0000       1.074814        29.2472 
 361   0.0000       1.092752        29.7353 
 362   0.0000       1.096339        29.8329 
 363   0.0000       1.100278        29.9401 
 364   0.0000       1.105378        30.0789 
 365   0.0000       1.108390        30.1608 
 366   0.0000       1.117741        30.4153 
 367   0.0000       1.125385        30.6233 
 368   0.0000       1.128932        30.7198 
 369   0.0000       1.130582        30.7647 
 370   0.0000       1.138727        30.9863 
 371   0.0000       1.145056        31.1586 
 372   0.0000       1.149726        31.2856 
 373   0.0000       1.155657        31.4470 
 374   0.0000       1.163948        31.6726 
 375   0.0000       1.173051        31.9203 
 376   0.0000       1.176401        32.0115 
 377   0.0000       1.196170        32.5494 
 378   0.0000       1.199541        32.6412 
 379   0.0000       1.205362        32.7996 
 380   0.0000       1.215111        33.0649 
 381   0.0000       1.217661        33.1342 
 382   0.0000       1.227001        33.3884 
 383   0.0000       1.241919        33.7943 
 384   0.0000       1.260723        34.3060 
 385   0.0000       1.266240        34.4561 
 386   0.0000       1.289013        35.0758 
 387   0.0000       1.296970        35.2923 
 388   0.0000       1.304458        35.4961 
 389   0.0000       1.333073        36.2748 
 390   0.0000       1.335881        36.3512 
 391   0.0000       1.348845        36.7039 
 392   0.0000       1.363099        37.0918 
 393   0.0000       1.393781        37.9267 
 394   0.0000       1.413031        38.4505 
 395   0.0000       1.430395        38.9230 
 396   0.0000       1.444780        39.3145 
 397   0.0000       1.465270        39.8720 
 398   0.0000       1.484743        40.4019 
 399   0.0000       1.493585        40.6425 
 400   0.0000       1.497890        40.7597 
 401   0.0000       1.504291        40.9339 
 402   0.0000       1.517631        41.2968 
 403   0.0000       1.529785        41.6276 
 404   0.0000       1.538013        41.8515 
 405   0.0000       1.555062        42.3154 
 406   0.0000       1.568787        42.6889 
 407   0.0000       1.573121        42.8068 
 408   0.0000       1.591467        43.3060 
 409   0.0000       1.613028        43.8927 
 410   0.0000       1.623765        44.1849 
 411   0.0000       1.638772        44.5932 
 412   0.0000       1.652895        44.9776 
 413   0.0000       1.662219        45.2313 
 414   0.0000       1.680453        45.7274 
 415   0.0000       1.695778        46.1445 
 416   0.0000       1.723036        46.8862 
 417   0.0000       1.732791        47.1517 
 418   0.0000       1.743066        47.4312 
 419   0.0000       1.755396        47.7667 
 420   0.0000       1.764753        48.0214 
 421   0.0000       1.777154        48.3588 
 422   0.0000       1.788646        48.6715 
 423   0.0000       1.799997        48.9804 
 424   0.0000       1.806333        49.1528 
 425   0.0000       1.818126        49.4737 
 426   0.0000       1.840494        50.0824 
 427   0.0000       1.846101        50.2350 
 428   0.0000       1.872827        50.9622 
 429   0.0000       1.888725        51.3948 
 430   0.0000       1.901856        51.7521 
 431   0.0000       1.921123        52.2764 
 432   0.0000       1.928624        52.4805 
 433   0.0000       1.943361        52.8815 
 434   0.0000       1.952631        53.1338 
 435   0.0000       1.967554        53.5399 
 436   0.0000       1.997198        54.3465 
 437   0.0000       1.997787        54.3626 
 438   0.0000       2.048136        55.7326 
 439   0.0000       2.061894        56.1070 
 440   0.0000       2.092646        56.9438 
 441   0.0000       2.098490        57.1028 
 442   0.0000       2.109756        57.4094 
 443   0.0000       2.120819        57.7104 
 444   0.0000       2.128293        57.9138 
 445   0.0000       2.139638        58.2225 
 446   0.0000       2.152382        58.5693 
 447   0.0000       2.157134        58.6986 
 448   0.0000       2.168143        58.9982 
 449   0.0000       2.170505        59.0625 
 450   0.0000       2.174321        59.1663 
 451   0.0000       2.175327        59.1937 
 452   0.0000       2.191949        59.6460 
 453   0.0000       2.209883        60.1340 
 454   0.0000       2.216347        60.3099 
 455   0.0000       2.221945        60.4622 
 456   0.0000       2.227209        60.6054 
 457   0.0000       2.231995        60.7357 
 458   0.0000       2.254848        61.3575 
 459   0.0000       2.259350        61.4800 
 460   0.0000       2.267730        61.7081 
 461   0.0000       2.272754        61.8448 
 462   0.0000       2.288765        62.2805 
 463   0.0000       2.303861        62.6912 
 464   0.0000       2.311433        62.8973 
 465   0.0000       2.316481        63.0347 
 466   0.0000       2.325209        63.2722 
 467   0.0000       2.328010        63.3484 
 468   0.0000       2.331003        63.4298 
 469   0.0000       2.338482        63.6333 
 470   0.0000       2.350357        63.9565 
 471   0.0000       2.352564        64.0165 
 472   0.0000       2.356360        64.1198 
 473   0.0000       2.376078        64.6564 
 474   0.0000       2.385093        64.9017 
 475   0.0000       2.389431        65.0197 
 476   0.0000       2.394877        65.1679 
 477   0.0000       2.403018        65.3894 
 478   0.0000       2.418594        65.8133 
 479   0.0000       2.430326        66.1325 
 480   0.0000       2.438086        66.3437 
 481   0.0000       2.440204        66.4013 
 482   0.0000       2.457232        66.8647 
 483   0.0000       2.472206        67.2722 
 484   0.0000       2.488478        67.7149 
 485   0.0000       2.490063        67.7581 
 486   0.0000       2.505195        68.1698 
 487   0.0000       2.517220        68.4970 
 488   0.0000       2.521007        68.6001 
 489   0.0000       2.536646        69.0256 
 490   0.0000       2.543340        69.2078 
 491   0.0000       2.551013        69.4166 
 492   0.0000       2.557227        69.5857 
 493   0.0000       2.560404        69.6721 
 494   0.0000       2.578399        70.1618 
 495   0.0000       2.591322        70.5134 
 496   0.0000       2.595861        70.6370 
 497   0.0000       2.607164        70.9445 
 498   0.0000       2.621644        71.3385 
 499   0.0000       2.626385        71.4676 
 500   0.0000       2.638280        71.7913 
 501   0.0000       2.654693        72.2379 
 502   0.0000       2.669591        72.6433 
 503   0.0000       2.685627        73.0796 
 504   0.0000       2.711880        73.7940 
 505   0.0000       2.719967        74.0141 
 506   0.0000       2.736024        74.4510 
 507   0.0000       2.749025        74.8048 
 508   0.0000       2.753119        74.9162 
 509   0.0000       2.764088        75.2146 
 510   0.0000       2.779931        75.6458 
 511   0.0000       2.791406        75.9580 
 512   0.0000       2.807861        76.4058 
 513   0.0000       2.813446        76.5578 
 514   0.0000       2.827222        76.9326 
 515   0.0000       2.840508        77.2942 
 516   0.0000       2.841675        77.3259 
 517   0.0000       2.864643        77.9509 
 518   0.0000       2.880139        78.3726 
 519   0.0000       2.895293        78.7849 
 520   0.0000       2.903280        79.0023 
 521   0.0000       2.923720        79.5585 
 522   0.0000       2.935524        79.8797 
 523   0.0000       2.970701        80.8369 
 524   0.0000       2.979495        81.0762 
 525   0.0000       2.994741        81.4911 
 526   0.0000       3.000241        81.6407 
 527   0.0000       3.016699        82.0886 
 528   0.0000       3.026862        82.3651 
 529   0.0000       3.044048        82.8328 
 530   0.0000       3.047924        82.9382 
 531   0.0000       3.056647        83.1756 
 532   0.0000       3.069859        83.5351 
 533   0.0000       3.099260        84.3352 
 534   0.0000       3.112352        84.6914 
 535   0.0000       3.121817        84.9490 
 536   0.0000       3.135461        85.3202 
 537   0.0000       3.142546        85.5130 
 538   0.0000       3.150164        85.7203 
 539   0.0000       3.164207        86.1025 
 540   0.0000       3.175483        86.4093 
 541   0.0000       3.179714        86.5244 
 542   0.0000       3.181834        86.5821 
 543   0.0000       3.203103        87.1609 
 544   0.0000       3.207857        87.2902 
 545   0.0000       3.220784        87.6420 
 546   0.0000       3.232703        87.9663 
 547   0.0000       3.237489        88.0966 
 548   0.0000       3.244702        88.2928 
 549   0.0000       3.246871        88.3519 
 550   0.0000       3.255548        88.5880 
 551   0.0000       3.258860        88.6781 
 552   0.0000       3.266102        88.8752 
 553   0.0000       3.283756        89.3555 
 554   0.0000       3.298803        89.7650 
 555   0.0000       3.306722        89.9805 
 556   0.0000       3.312512        90.1380 
[...]
     31      -0.067366  -0.007553   0.000044   0.000069  -0.000040  -0.000006
     32       0.008516   0.000620   0.000017  -0.000003  -0.000006   0.000089
     33      -0.010392  -0.001005  -0.000016  -0.000033   0.000017  -0.000583
     34      -0.011974  -0.002062  -0.000001   0.000005  -0.000007   0.000202
     35      -0.001848  -0.000169  -0.000000   0.000011   0.000000  -0.000116
     36      -0.000696  -0.000382  -0.000017   0.000040  -0.000020   0.000850
     37       0.001355  -0.000270  -0.000039  -0.000005  -0.000008  -0.000721
     38      -0.000140  -0.000080   0.000000   0.000014  -0.000006   0.000156
     39       0.000288   0.000192   0.000012  -0.000038   0.000020  -0.000460
     40      -0.000127   0.000037   0.000002  -0.000008   0.000002   0.000394
     41       0.000055   0.000034   0.000002  -0.000010   0.000005  -0.000023
     42      -0.000590   0.000012   0.000074  -0.000215   0.000006   0.971790
     43       0.000414  -0.001232   0.000014  -0.000039   0.000012   0.102989
     44      -0.000120  -0.000015   0.000001  -0.000061  -0.000000   0.202935
     45       0.038297  -0.370300   0.000435   0.000045  -0.000102  -0.000171
     46       0.092731  -0.914631   0.001283   0.000442  -0.000270  -0.000318
     47       0.009660  -0.091889   0.000305   0.000106  -0.000043  -0.000057
     48      -0.002335  -0.007270  -0.000655   0.000836   0.000302   0.000126
     49      -0.002517  -0.011071  -0.002241   0.001917   0.000930   0.000134
     50       0.000611   0.002894  -0.000662   0.000496   0.000581   0.000003
     51      -0.005147  -0.002153   0.000333   0.000534  -0.000778  -0.000041
     52       0.004204   0.000287   0.000330  -0.000537   0.000745  -0.000013
     53       0.003586   0.000832   0.001937  -0.000521   0.001258  -0.000011
     54      -0.000809  -0.001291  -0.009184  -0.012324   0.003989   0.000134
     55       0.000087  -0.000208   0.002321   0.001488  -0.000675   0.000063
     56      -0.000552  -0.000908   0.002646   0.002100   0.000301   0.000047
     57      -0.000315  -0.000279   0.000371  -0.001965  -0.000820   0.000004
     58      -0.000113  -0.001417   0.011907  -0.010943  -0.007555   0.000091
     59      -0.000895   0.000603   0.001119  -0.001064   0.000247  -0.000058
     60      -0.561299  -0.054837   0.000097   0.000124  -0.000036  -0.000138
     61       0.801829   0.081237  -0.000294  -0.000327   0.000112   0.000327
     62      -0.087691  -0.008343   0.000005   0.000038  -0.000010  -0.000086
     63       0.057332   0.009876   0.000083  -0.000082   0.000039   0.000448
     64       0.114111   0.019058   0.000110  -0.000129   0.000054  -0.000728
     65       0.007960   0.001378  -0.000010   0.000003   0.000029   0.000121
     66      -0.000001  -0.000000  -0.000125   0.000110  -0.000020   0.000003
     67      -0.000000  -0.000001   0.000229   0.000105   0.000045   0.000006
     68       0.000001   0.000001   0.000191   0.000041  -0.000088  -0.000002
     69       0.000001   0.000004  -0.000002  -0.000005  -0.000004  -0.000010
     70       0.000000   0.000004  -0.000001  -0.000004   0.000005  -0.000008
     71      -0.000000  -0.000001  -0.000000  -0.000002   0.000002   0.000002
     72       0.000001   0.000006  -0.000011   0.000006   0.000007  -0.000015
     73      -0.000000  -0.000005   0.000012  -0.000021  -0.000014   0.000010
     74       0.000001  -0.000000   0.000007  -0.000011  -0.000004  -0.000004
     75      -0.000000   0.000002  -0.000000  -0.000004   0.000001  -0.000004
     76      -0.000001  -0.000004   0.000003   0.000007  -0.000004   0.000010
     77       0.000000   0.000002  -0.000002   0.000004   0.000002  -0.000004
     78      -0.000001  -0.000004  -0.000001  -0.000009   0.000003   0.000009
     79       0.000001   0.000005   0.000004   0.000007  -0.000004  -0.000011
     80      -0.000001  -0.000001   0.000008   0.000010  -0.000004   0.000004
     81      -0.000001  -0.000005   0.000000   0.000002  -0.000007   0.000013
     82      -0.000000  -0.000001   0.000002  -0.000002   0.000007   0.000003
     83       0.000000   0.000000  -0.000002  -0.000002   0.000007  -0.000001
     84      -0.000001   0.000001  -0.000001   0.000007   0.000003  -0.000002
     85       0.000000   0.000004  -0.000003  -0.000000  -0.000001  -0.000008
     86      -0.000000  -0.000001   0.000003  -0.000006  -0.000005   0.000003
     87       0.000001   0.000008   0.000001   0.000004  -0.000003  -0.000019
     88       0.000000   0.000000  -0.000004   0.000005   0.000003  -0.000001
     89      -0.000000   0.000000   0.000002   0.000003  -0.000006   0.000000


-----------
IR SPECTRUM
-----------

 Mode   freq       eps      Int      T**2         TX        TY        TZ
       cm**-1   L/(mol*cm) km/mol    a.u.
----------------------------------------------------------------------------
 15:      9.48   0.000433    2.19  0.014248  (-0.058915 -0.005033  0.103689)
 16:     24.35   0.000029    0.15  0.000374  (-0.001209 -0.011376  0.015588)
 17:     30.69   0.000104    0.53  0.001057  ( 0.023768 -0.014139  0.017086)
 18:     35.87   0.000164    0.83  0.001429  ( 0.030577  0.002881  0.022049)
 19:     37.36   0.000166    0.84  0.001389  ( 0.007278  0.004107  0.036318)
 20:     38.59   0.000362    1.83  0.002925  (-0.014219  0.033938 -0.039632)
 21:     46.07   0.000089    0.45  0.000600  ( 0.004903  0.005293  0.023417)
 22:     47.18   0.000024    0.12  0.000159  (-0.012192 -0.002573 -0.001893)
 23:     48.91   0.000030    0.15  0.000192  (-0.005971 -0.006823  0.010484)
 24:     51.43   0.000021    0.11  0.000129  (-0.002191 -0.009623  0.005647)
 25:     56.73   0.000003    0.01  0.000015  (-0.001181  0.001519 -0.003378)
 26:     57.78   0.000038    0.19  0.000208  (-0.012494 -0.002447 -0.006740)
 27:     60.08   0.000053    0.27  0.000274  (-0.011376  0.012030  0.000110)
 28:     64.35   0.000024    0.12  0.000115  (-0.007163 -0.005170 -0.006039)
 29:     69.72   0.000136    0.69  0.000610  (-0.004629  0.020703 -0.012633)
 30:     73.20   0.001178    5.95  0.005020  ( 0.030540 -0.016114 -0.061869)
 31:     74.04   0.001574    7.96  0.006635  ( 0.070270 -0.018373  0.036877)
 32:     76.41   0.000832    4.20  0.003397  ( 0.025540  0.051665  0.008683)
 33:     94.46   0.001623    8.20  0.005363  (-0.017247 -0.061023  0.036624)
 34:    114.76   0.007994   40.40  0.021737  (-0.008246  0.136652  0.054729)
 35:    165.48   0.008512   43.02  0.016052  (-0.014427  0.125472 -0.010035)
 36:    194.20   0.000621    3.14  0.000997  ( 0.013510 -0.018431 -0.021791)
 37:    223.15   0.002371   11.98  0.003316  ( 0.029186 -0.044778  0.021433)
 38:    276.47   0.007471   37.75  0.008432  (-0.006842  0.024983 -0.088099)
 39:    333.21   0.003258   16.46  0.003051  ( 0.023459  0.017958  0.046672)
 40:    371.41   0.003291   16.63  0.002765  (-0.052491 -0.003144  0.000235)
 41:    421.54   0.016307   82.41  0.012072  (-0.104579 -0.005171 -0.033299)
 42:    470.41   0.008126   41.06  0.005391  (-0.072957 -0.005237 -0.006366)
 43:    479.45   0.012264   61.98  0.007982  ( 0.077966  0.008869  0.042721)
 44:    539.12   0.015638   79.03  0.009052  ( 0.094310  0.010526  0.006846)
 45:    556.30   0.019665   99.38  0.011032  (-0.104196  0.000150 -0.013224)
 46:    600.50   0.009752   49.28  0.005068  (-0.056447 -0.012362 -0.041576)
 47:    667.87   0.000823    4.16  0.000385  ( 0.016300  0.007138  0.008239)
 48:    690.37   0.001679    8.48  0.000759  (-0.004111  0.026356  0.006880)
 49:    750.58   0.009067   45.82  0.003770  (-0.054900 -0.027400 -0.002244)
 50:    769.28   0.013402   67.73  0.005437  (-0.002044  0.004302 -0.073579)
 51:    800.92   0.008869   44.82  0.003456  (-0.008972 -0.015802  0.055906)
 52:    823.89   0.003455   17.46  0.001309  ( 0.026287  0.024338  0.005020)
 53:    835.50   0.004795   24.23  0.001791  (-0.030481  0.001265  0.029329)
 54:    879.38   0.034156  172.61  0.012121  (-0.053393  0.090780 -0.032075)
 55:    887.53   0.018624   94.12  0.006548  ( 0.034849  0.061348  0.039628)
 56:    911.91   0.002801   14.16  0.000959  (-0.002755 -0.027350 -0.014246)
 57:    936.39   0.020237  102.27  0.006744  ( 0.062350  0.052511  0.009972)
 58:    990.02   0.007352   37.15  0.002317  (-0.024369  0.018909  0.036959)
 59:   1017.92   0.001533    7.75  0.000470  ( 0.016280 -0.006254  0.012881)
 60:   1052.58   0.006056   30.61  0.001796  ( 0.020425 -0.008851  0.036056)
 61:   1114.62   0.011755   59.41  0.003291  ( 0.032036 -0.046385  0.010641)
 62:   1138.25   0.003835   19.38  0.001051  ( 0.005964 -0.031406 -0.005434)
 63:   1165.57   0.006726   33.99  0.001801  (-0.025492  0.032970 -0.008006)
 64:   1195.76   0.004522   22.85  0.001180  (-0.003008  0.025864 -0.022410)
 65:   1251.94   0.005855   29.59  0.001459  ( 0.003851 -0.036115 -0.011843)
 66:   1260.59   0.003677   18.58  0.000910  (-0.029522  0.005387 -0.003119)
 67:   1307.78   0.029548  149.32  0.007051  (-0.058603  0.039390  0.045441)
 68:   1329.53   0.294298  1487.26  0.069077  ( 0.080897 -0.200761 -0.149089)
 69:   1337.72   0.010233   51.71  0.002387  ( 0.032754 -0.012440 -0.034052)
 70:   1353.40   0.264227  1335.29  0.060925  (-0.111625  0.182307  0.123405)
 71:   1374.18   0.013127   66.34  0.002981  (-0.043092  0.026239 -0.020872)
 72:   1412.51   0.002051   10.36  0.000453  (-0.002155  0.018235 -0.010766)
 73:   1444.59   0.005132   25.94  0.001109  (-0.019904  0.019598 -0.018123)
 74:   1519.64   0.003156   15.95  0.000648  (-0.020871  0.011751 -0.008627)
 75:   1527.91   0.006568   33.19  0.001341  ( 0.017316 -0.031834  0.005307)
 76:   1534.22   0.067156  339.38  0.013660  ( 0.098459 -0.059422  0.020844)
 77:   1718.26   0.027128  137.10  0.004927  (-0.066424  0.014295 -0.017620)
 78:   1748.65   0.017487   88.37  0.003121  (-0.028644  0.047826 -0.003599)
 79:   2961.75   0.005369   27.13  0.000566  ( 0.019811 -0.011850  0.005725)
 80:   2969.03   0.007200   36.39  0.000757  (-0.025664 -0.006401  0.007558)
 81:   3006.79   0.003276   16.56  0.000340  ( 0.018060 -0.003215  0.001882)
 82:   3019.75   0.006303   31.85  0.000651  ( 0.010655  0.023053  0.002521)
 83:   3020.74   0.002921   14.76  0.000302  ( 0.012343  0.011622  0.003784)
 84:   3110.86   0.006775   34.24  0.000680  ( 0.014917 -0.021309  0.001764)
 85:   3121.46   0.004116   20.80  0.000411  ( 0.009018  0.018154  0.000758)
 86:   3508.08   0.042845  216.52  0.003811  (-0.030988  0.040933  0.034286)
 87:   3575.84   0.012620   63.77  0.001101  (-0.021424 -0.019738 -0.015898)
 88:   3589.13   0.016888   85.34  0.001468  ( 0.020413 -0.020601  0.025044)
 89:   3958.82   0.031226  157.80  0.002461  ( 0.048314 -0.002511  0.010995)

* The epsilon (eps) is given for a Dirac delta lineshape.
** The dipole moment derivative (T) already includes vibrational overlap.

The first frequency considered to be a vibration is 15
The total number of vibrations considered is 75


--------------------------
THERMOCHEMISTRY AT 298.15K
--------------------------

Temperature         ... 298.15 K
Pressure            ... 1.00 atm
Total Mass          ... 661.58 AMU

Throughout the following assumptions are being made:
  (1) The electronic state is orbitally nondegenerate
  (2) There are no thermally accessible electronically excited states
  (3) Hindered rotations indicated by low frequency modes are not
      treated as such but are treated as vibrations and this may
      cause some error
  (4) All equations used are the standard statistical mechanics
      equations for an ideal gas
  (5) All vibrations are strictly harmonic

freq.       9.48  E(vib)   ...       0.58 
freq.      24.35  E(vib)   ...       0.56 
freq.      30.69  E(vib)   ...       0.55 
freq.      35.87  E(vib)   ...       0.54 
freq.      37.36  E(vib)   ...       0.54 
freq.      38.59  E(vib)   ...       0.54 
freq.      46.07  E(vib)   ...       0.53 
freq.      47.18  E(vib)   ...       0.53 
freq.      48.91  E(vib)   ...       0.53 
freq.      51.43  E(vib)   ...       0.52 
freq.      56.73  E(vib)   ...       0.52 
freq.      57.78  E(vib)   ...       0.51 
freq.      60.08  E(vib)   ...       0.51 
freq.      64.35  E(vib)   ...       0.51 
freq.      69.72  E(vib)   ...       0.50 
freq.      73.20  E(vib)   ...       0.49 
freq.      74.04  E(vib)   ...       0.49 
freq.      76.41  E(vib)   ...       0.49 
freq.      94.46  E(vib)   ...       0.47 
freq.     114.76  E(vib)   ...       0.44 
freq.     165.48  E(vib)   ...       0.39 
freq.     194.20  E(vib)   ...       0.36 
freq.     223.15  E(vib)   ...       0.33 
freq.     276.47  E(vib)   ...       0.28 
freq.     333.21  E(vib)   ...       0.24 
freq.     371.41  E(vib)   ...       0.21 
freq.     421.54  E(vib)   ...       0.18 
freq.     470.41  E(vib)   ...       0.15 
freq.     479.45  E(vib)   ...       0.15 
freq.     539.12  E(vib)   ...       0.12 
freq.     556.30  E(vib)   ...       0.12 
freq.     600.50  E(vib)   ...       0.10 
freq.     667.87  E(vib)   ...       0.08 
freq.     690.37  E(vib)   ...       0.07 
freq.     750.58  E(vib)   ...       0.06 
freq.     769.28  E(vib)   ...       0.06 
freq.     800.92  E(vib)   ...       0.05 
freq.     823.89  E(vib)   ...       0.05 
freq.     835.50  E(vib)   ...       0.04 
freq.     879.38  E(vib)   ...       0.04 
freq.     887.53  E(vib)   ...       0.04 
freq.     911.91  E(vib)   ...       0.03 
freq.     936.39  E(vib)   ...       0.03 
freq.     990.02  E(vib)   ...       0.02 
freq.    1017.92  E(vib)   ...       0.02 
freq.    1052.58  E(vib)   ...       0.02 
freq.    1114.62  E(vib)   ...       0.01 
freq.    1138.25  E(vib)   ...       0.01 
freq.    1165.57  E(vib)   ...       0.01 
freq.    1195.76  E(vib)   ...       0.01 
freq.    1251.94  E(vib)   ...       0.01 
freq.    1260.59  E(vib)   ...       0.01 
freq.    1307.78  E(vib)   ...       0.01 
freq.    1329.53  E(vib)   ...       0.01 
freq.    1337.72  E(vib)   ...       0.01 
freq.    1353.40  E(vib)   ...       0.01 
freq.    1374.18  E(vib)   ...       0.01 
freq.    1412.51  E(vib)   ...       0.00 
freq.    1444.59  E(vib)   ...       0.00 
freq.    1519.64  E(vib)   ...       0.00 
freq.    1527.91  E(vib)   ...       0.00 
freq.    1534.22  E(vib)   ...       0.00 
freq.    1718.26  E(vib)   ...       0.00 
freq.    1748.65  E(vib)   ...       0.00 
freq.    2961.75  E(vib)   ...       0.00 
freq.    2969.03  E(vib)   ...       0.00 
freq.    3006.79  E(vib)   ...       0.00 
freq.    3019.75  E(vib)   ...       0.00 
freq.    3020.74  E(vib)   ...       0.00 
freq.    3110.86  E(vib)   ...       0.00 
freq.    3121.46  E(vib)   ...       0.00 
freq.    3508.08  E(vib)   ...       0.00 
freq.    3575.84  E(vib)   ...       0.00 
freq.    3589.13  E(vib)   ...       0.00 
freq.    3958.82  E(vib)   ...       0.00 

------------
INNER ENERGY
------------

The inner energy is: U= E(el) + E(ZPE) + E(vib) + E(rot) + E(trans)
    E(el)   - is the total energy from the electronic structure calculation
              = E(kin-el) + E(nuc-el) + E(el-el) + E(nuc-nuc)
    E(ZPE)  - the the zero temperature vibrational energy from the frequency calculation
    E(vib)  - the the finite temperature correction to E(ZPE) due to population
              of excited vibrational states
    E(rot)  - is the rotational thermal energy
    E(trans)- is the translational thermal energy

Summary of contributions to the inner energy U:
Electronic energy                ... -13638.72618046 Eh
Zero point energy                ...      0.17845834 Eh     111.98 kcal/mol
Thermal vibrational correction   ...      0.02183005 Eh      13.70 kcal/mol
Thermal rotational correction    ...      0.00141627 Eh       0.89 kcal/mol
Thermal translational correction ...      0.00141627 Eh       0.89 kcal/mol
-----------------------------------------------------------------------
Total thermal energy                 -13638.52305952 Eh


Summary of corrections to the electronic energy:
(perhaps to be used in another calculation)
Total thermal correction                  0.02466260 Eh      15.48 kcal/mol
Non-thermal (ZPE) correction              0.17845834 Eh     111.98 kcal/mol
-----------------------------------------------------------------------
Total correction                          0.20312094 Eh     127.46 kcal/mol


--------
ENTHALPY
--------

The enthalpy is H = U + kB*T
                kB is Boltzmann's constant
Total free energy                 ... -13638.52305952 Eh 
Thermal Enthalpy correction       ...      0.00094421 Eh       0.59 kcal/mol
-----------------------------------------------------------------------
Total Enthalpy                    ... -13638.52211531 Eh


Note: Only C1 symmetry has been detected, increase convergence thresholds 
      if your molecule has a higher symmetry. Symmetry factor of 1.0 is   
      used for the rotational entropy correction. 
 

Note: Rotational entropy computed according to Herzberg 
Infrared and Raman Spectra, Chapter V,1, Van Nostrand Reinhold, 1945 
Point Group:  C1, Symmetry Number:   1  
Rotational constants in cm-1:     0.006373     0.002520     0.002495 

Vibrational entropy computed according to the QRRHO of S. Grimme
Chem.Eur.J. 2012 18 9955


-------
ENTROPY
-------

The entropy contributions are T*S = T*(S(el)+S(vib)+S(rot)+S(trans))
     S(el)   - electronic entropy
     S(vib)  - vibrational entropy
     S(rot)  - rotational entropy
     S(trans)- translational entropy
The entropies will be listed as multiplied by the temperature to get
units of energy

Electronic entropy                ...      0.00000000 Eh      0.00 kcal/mol
Vibrational entropy               ...      0.04309357 Eh     27.04 kcal/mol
Rotational entropy                ...      0.01755175 Eh     11.01 kcal/mol
Translational entropy             ...      0.02154723 Eh     13.52 kcal/mol
-----------------------------------------------------------------------
Final entropy term                ...      0.08219255 Eh     51.58 kcal/mol

In case the symmetry of your molecule has not been determined correctly
or in case you have a reason to use a different symmetry number we print 
out the resulting rotational entropy values for sn=1,12 :
 --------------------------------------------------------
|  sn= 1 | S(rot)=       0.01755175 Eh     11.01 kcal/mol|
|  sn= 2 | S(rot)=       0.01689730 Eh     10.60 kcal/mol|
|  sn= 3 | S(rot)=       0.01651446 Eh     10.36 kcal/mol|
|  sn= 4 | S(rot)=       0.01624284 Eh     10.19 kcal/mol|
|  sn= 5 | S(rot)=       0.01603215 Eh     10.06 kcal/mol|
|  sn= 6 | S(rot)=       0.01586001 Eh      9.95 kcal/mol|
|  sn= 7 | S(rot)=       0.01571446 Eh      9.86 kcal/mol|
|  sn= 8 | S(rot)=       0.01558838 Eh      9.78 kcal/mol|
|  sn= 9 | S(rot)=       0.01547718 Eh      9.71 kcal/mol|
|  sn=10 | S(rot)=       0.01537770 Eh      9.65 kcal/mol|
|  sn=11 | S(rot)=       0.01528771 Eh      9.59 kcal/mol|
|  sn=12 | S(rot)=       0.01520555 Eh      9.54 kcal/mol|
 --------------------------------------------------------


-------------------
GIBBS FREE ENERGY
-------------------

The Gibbs free energy is G = H - T*S

Total enthalpy                    ... -13638.52211531 Eh 
Total entropy correction          ...     -0.08219255 Eh    -51.58 kcal/mol
-----------------------------------------------------------------------
Final Gibbs free energy         ... -13638.60430786 Eh

For completeness - the Gibbs free energy minus the electronic energy
G-E(el)                           ...      0.12187260 Eh     76.48 kcal/mol



Timings for individual modules:

Sum of individual times         ...     4596.392 sec (=  76.607 min)
GTO integral calculation        ...        5.386 sec (=   0.090 min)   0.1 %
SCF iterations                  ...      186.034 sec (=   3.101 min)   4.0 %
SCF Gradient evaluation         ...       31.657 sec (=   0.528 min)   0.7 %
Numerical frequency calculation ...     4373.316 sec (=  72.889 min)  95.1 %



                             ****ORCA TERMINATED NORMALLY****
TOTAL RUN TIME: 0 days 6 hours 7 minutes 44 seconds 177 msec
