
                                 *****************
                                 * O   R   C   A *
                                 *****************

                                            #,                                       
                                            ###                                      
                                            ####                                     
                                            #####                                    
                                            ######                                   
                                           ########,                                 
                                     ,,################,,,,,                         
                               ,,#################################,,                 
                          ,,##########################################,,             
                       ,#########################################, ''#####,          
                    ,#############################################,,   '####,        
                  ,##################################################,,,,####,       
                ,###########''''           ''''###############################       
              ,#####''   ,,,,##########,,,,          '''####'''          '####       
            ,##' ,,,,###########################,,,                        '##       
           ' ,,###''''                  '''############,,,                           
         ,,##''                                '''############,,,,        ,,,,,,###''
      ,#''                                            '''#######################'''  
     '                                                          ''''####''''         
             ,#######,   #######,   ,#######,      ##                                
            ,#'     '#,  ##    ##  ,#'     '#,    #''#        ######   ,####,        
            ##       ##  ##   ,#'  ##            #'  '#       #        #'  '#        
            ##       ##  #######   ##           ,######,      #####,   #    #        
            '#,     ,#'  ##    ##  '#,     ,#' ,#      #,         ##   #,  ,#        
             '#######'   ##     ##  '#######'  #'      '#     #####' # '####'        



                  #######################################################
                  #                        -***-                        #
                  #          Department of theory and spectroscopy      #
                  #    Directorship and core code : Frank Neese         #
                  #        Max Planck Institute fuer Kohlenforschung    #
                  #                Kaiser Wilhelm Platz 1               #
                  #                 D-45470 Muelheim/Ruhr               #
                  #                      Germany                        #
                  #                                                     #
                  #                  All rights reserved                #
                  #                        -***-                        #
                  #######################################################


                         Program Version 5.0.2 -  RELEASE  -


 With contributions from (in alphabetic order):
   Daniel Aravena         : Magnetic Suceptibility
   Michael Atanasov       : Ab Initio Ligand Field Theory (pilot matlab implementation)
   Alexander A. Auer      : GIAO ZORA, VPT2 properties, NMR spectrum
   Ute Becker             : Parallelization
   Giovanni Bistoni       : ED, misc. LED, open-shell LED, HFLD
   Martin Brehm           : Molecular dynamics
   Dmytro Bykov           : SCF Hessian
   Vijay G. Chilkuri      : MRCI spin determinant printing, contributions to CSF-ICE
   Dipayan Datta          : RHF DLPNO-CCSD density
   Achintya Kumar Dutta   : EOM-CC, STEOM-CC
   Dmitry Ganyushin       : Spin-Orbit,Spin-Spin,Magnetic field MRCI
   Miquel Garcia          : C-PCM and meta-GGA Hessian, CC/C-PCM, Gaussian charge scheme
   Yang Guo               : DLPNO-NEVPT2, F12-NEVPT2, CIM, IAO-localization
   Andreas Hansen         : Spin unrestricted coupled pair/coupled cluster methods
   Benjamin Helmich-Paris : MC-RPA, TRAH-SCF, COSX integrals
   Lee Huntington         : MR-EOM, pCC
   Robert Izsak           : Overlap fitted RIJCOSX, COSX-SCS-MP3, EOM
   Marcus Kettner         : VPT2
   Christian Kollmar      : KDIIS, OOCD, Brueckner-CCSD(T), CCSD density, CASPT2, CASPT2-K
   Simone Kossmann        : Meta GGA functionals, TD-DFT gradient, OOMP2, MP2 Hessian
   Martin Krupicka        : Initial AUTO-CI
   Lucas Lang             : DCDCAS
   Marvin Lechner         : AUTO-CI (C++ implementation), FIC-MRCC
   Dagmar Lenk            : GEPOL surface, SMD
   Dimitrios Liakos       : Extrapolation schemes; Compound Job, initial MDCI parallelization
   Dimitrios Manganas     : Further ROCIS development; embedding schemes
   Dimitrios Pantazis     : SARC Basis sets
   Anastasios Papadopoulos: AUTO-CI, single reference methods and gradients
   Taras Petrenko         : DFT Hessian,TD-DFT gradient, ASA, ECA, R-Raman, ABS, FL, XAS/XES, NRVS
   Peter Pinski           : DLPNO-MP2, DLPNO-MP2 Gradient
   Christoph Reimann      : Effective Core Potentials
   Marius Retegan         : Local ZFS, SOC
   Christoph Riplinger    : Optimizer, TS searches, QM/MM, DLPNO-CCSD(T), (RO)-DLPNO pert. Triples
   Tobias Risthaus        : Range-separated hybrids, TD-DFT gradient, RPA, STAB
   Michael Roemelt        : Original ROCIS implementation
   Masaaki Saitow         : Open-shell DLPNO-CCSD energy and density
   Barbara Sandhoefer     : DKH picture change effects
   Avijit Sen             : IP-ROCIS
   Kantharuban Sivalingam : CASSCF convergence, NEVPT2, FIC-MRCI
   Bernardo de Souza      : ESD, SOC TD-DFT
   Georgi Stoychev        : AutoAux, RI-MP2 NMR, DLPNO-MP2 response
   Willem Van den Heuvel  : Paramagnetic NMR
   Boris Wezisla          : Elementary symmetry handling
   Frank Wennmohs         : Technical directorship


 We gratefully acknowledge several colleagues who have allowed us to
 interface, adapt or use parts of their codes:
   Stefan Grimme, W. Hujo, H. Kruse, P. Pracht,  : VdW corrections, initial TS optimization,
                  C. Bannwarth, S. Ehlert          DFT functionals, gCP, sTDA/sTD-DF
   Ed Valeev, F. Pavosevic, A. Kumar             : LibInt (2-el integral package), F12 methods
   Garnet Chan, S. Sharma, J. Yang, R. Olivares  : DMRG
   Ulf Ekstrom                                   : XCFun DFT Library
   Mihaly Kallay                                 : mrcc  (arbitrary order and MRCC methods)
   Jiri Pittner, Ondrej Demel                    : Mk-CCSD
   Frank Weinhold                                : gennbo (NPA and NBO analysis)
   Christopher J. Cramer and Donald G. Truhlar   : smd solvation model
   Lars Goerigk                                  : TD-DFT with DH, B97 family of functionals
   V. Asgeirsson, H. Jonsson                     : NEB implementation
   FAccTs GmbH                                   : IRC, NEB, NEB-TS, DLPNO-Multilevel, CI-OPT
                                                   MM, QMMM, 2- and 3-layer-ONIOM, Crystal-QMMM,
                                                   LR-CPCM, SF, NACMEs, symmetry and pop. for TD-DFT,
                                                   nearIR, NL-DFT gradient (VV10), updates on ESD,
                                                   ML-optimized integration grids
   S Lehtola, MJT Oliveira, MAL Marques          : LibXC Library
   Liviu Ungur et al                             : ANISO software


 Your calculation uses the libint2 library for the computation of 2-el integrals
 For citations please refer to: http://libint.valeyev.net

 Your ORCA version has been built with support for libXC version: 5.1.0
 For citations please refer to: https://tddft.org/programs/libxc/

 This ORCA versions uses:
   CBLAS   interface :  Fast vector & matrix operations
   LAPACKE interface :  Fast linear algebra routines
   SCALAPACK package :  Parallel linear algebra routines
   Shared memory     :  Shared parallel matrices
   BLAS/LAPACK       :  OpenBLAS 0.3.15  USE64BITINT DYNAMIC_ARCH NO_AFFINITY Haswell SINGLE_THREADED
        Core in use  :  Haswell
   Copyright (c) 2011-2014, The OpenBLAS Project


Your calculation utilizes the atom-pairwise dispersion correction
with the Becke-Johnson damping scheme (D3BJ)
Cite in your paper:
S.Grimme, S.Ehrlich, L.Goerigk, J Comput Chem, (2011), 32, 1456–1465 
S.Grimme, J.Antony, S.Ehrlich and H.Krieg, J.Chem.Phys., 132, (2010), 154104 
   

================================================================================

----- Orbital basis set information -----
Your calculation utilizes the basis: def2-TZVP
   F. Weigend and R. Ahlrichs, Phys. Chem. Chem. Phys. 7, 3297 (2005).

----- AuxJ basis set information -----
Your calculation utilizes the auxiliary basis: def2/J
   F. Weigend, Phys. Chem. Chem. Phys. 8, 1057 (2006).

================================================================================
                                        WARNINGS
                       Please study these warnings very carefully!
================================================================================


WARNING: The environment variable RSH_COMMAND is not set!
  ===> : All Displacements for the Numerical Hessian or Gradient calculation
         will be started on localhost

INFO   : the flag for use of the SHARK integral package has been found!

Your calculation utilizes the atom-pairwise dispersion correction
with the Becke-Johnson damping scheme (D3BJ)
Cite in your paper:
S.Grimme, S.Ehrlich, L.Goerigk, J Comput Chem, (2011), 32, 1456–1465 
S.Grimme, J.Antony, S.Ehrlich and H.Krieg, J.Chem.Phys., 132, (2010), 154104 
   

================================================================================

----- Orbital basis set information -----
Your calculation utilizes the basis: def2-TZVP
   F. Weigend and R. Ahlrichs, Phys. Chem. Chem. Phys. 7, 3297 (2005).

----- AuxJ basis set information -----
Your calculation utilizes the auxiliary basis: def2/J
   F. Weigend, Phys. Chem. Chem. Phys. 8, 1057 (2006).

================================================================================
                                        WARNINGS
                       Please study these warnings very carefully!
================================================================================


WARNING: MOInp is set but Guess=PModel. MOInp will be ignored!
         To read the initial guess from a file you must also specify
         'MORead' in the simple input or 'Guess MORead' in the %scf block


WARNING: The environment variable RSH_COMMAND is not set!
  ===> : All Displacements for the Numerical Hessian or Gradient calculation
         will be started on localhost

INFO   : the flag for use of the SHARK integral package has been found!

Your calculation utilizes the atom-pairwise dispersion correction
with the Becke-Johnson damping scheme (D3BJ)
Cite in your paper:
S.Grimme, S.Ehrlich, L.Goerigk, J Comput Chem, (2011), 32, 1456–1465 
S.Grimme, J.Antony, S.Ehrlich and H.Krieg, J.Chem.Phys., 132, (2010), 154104 
   

================================================================================

----- Orbital basis set information -----
Your calculation utilizes the basis: def2-TZVP
   F. Weigend and R. Ahlrichs, Phys. Chem. Chem. Phys. 7, 3297 (2005).

----- AuxJ basis set information -----
Your calculation utilizes the auxiliary basis: def2/J
   F. Weigend, Phys. Chem. Chem. Phys. 8, 1057 (2006).

================================================================================
                                        WARNINGS
                       Please study these warnings very carefully!
================================================================================


WARNING: MOInp is set but Guess=PModel. MOInp will be ignored!
         To read the initial guess from a file you must also specify
         'MORead' in the simple input or 'Guess MORead' in the %scf block


WARNING: The environment variable RSH_COMMAND is not set!
  ===> : All Displacements for the Numerical Hessian or Gradient calculation
         will be started on localhost

INFO   : the flag for use of the SHARK integral package has been found!

Your calculation utilizes the atom-pairwise dispersion correction
with the Becke-Johnson damping scheme (D3BJ)
Cite in your paper:
S.Grimme, S.Ehrlich, L.Goerigk, J Comput Chem, (2011), 32, 1456–1465 
S.Grimme, J.Antony, S.Ehrlich and H.Krieg, J.Chem.Phys., 132, (2010), 154104 
   

================================================================================

----- Orbital basis set information -----
Your calculation utilizes the basis: def2-TZVP
   F. Weigend and R. Ahlrichs, Phys. Chem. Chem. Phys. 7, 3297 (2005).

----- AuxJ basis set information -----
Your calculation utilizes the auxiliary basis: def2/J
   F. Weigend, Phys. Chem. Chem. Phys. 8, 1057 (2006).

================================================================================
                                        WARNINGS
                       Please study these warnings very carefully!
================================================================================


WARNING: MOInp is set but Guess=PModel. MOInp will be ignored!
         To read the initial guess from a file you must also specify
         'MORead' in the simple input or 'Guess MORead' in the %scf block


WARNING: The environment variable RSH_COMMAND is not set!
  ===> : All Displacements for the Numerical Hessian or Gradient calculation
         will be started on localhost

INFO   : the flag for use of the SHARK integral package has been found!

Your calculation utilizes the atom-pairwise dispersion correction
with the Becke-Johnson damping scheme (D3BJ)
Cite in your paper:
S.Grimme, S.Ehrlich, L.Goerigk, J Comput Chem, (2011), 32, 1456–1465 
S.Grimme, J.Antony, S.Ehrlich and H.Krieg, J.Chem.Phys., 132, (2010), 154104 
   

================================================================================

----- Orbital basis set information -----
Your calculation utilizes the basis: def2-TZVP
   F. Weigend and R. Ahlrichs, Phys. Chem. Chem. Phys. 7, 3297 (2005).

----- AuxJ basis set information -----
Your calculation utilizes the auxiliary basis: def2/J
   F. Weigend, Phys. Chem. Chem. Phys. 8, 1057 (2006).

================================================================================
                                        WARNINGS
                       Please study these warnings very carefully!
================================================================================


WARNING: MOInp is set but Guess=PModel. MOInp will be ignored!
         To read the initial guess from a file you must also specify
         'MORead' in the simple input or 'Guess MORead' in the %scf block


WARNING: The environment variable RSH_COMMAND is not set!
  ===> : All Displacements for the Numerical Hessian or Gradient calculation
         will be started on localhost

INFO   : the flag for use of the SHARK integral package has been found!

================================================================================
                                       INPUT FILE
================================================================================
NAME = ex.inp
|  1> ! PBE D3 def2-TZVP opt numfreq PModel NOAUTOSTART
|  2> %pal nprocs=16 end
|  3> %geom maxiter=150 end
|  4> %base "neutral"
|  5> *xyz 0 1
|  6>   C   -0.00840333875173     -1.10991541877379     -0.59942886237143
|  7>   C   -1.67885670254819      1.13537494713009     -0.73246661744969
|  8>   C   -1.39813605667918     -1.27695150906711     -0.59091288141427
|  9>   C   0.58033575045247      0.15557215028836     -0.68097326049558
| 10>   C   -0.26404863833496      1.29077130651785     -0.74916625503012
| 11>   C   -2.23698954353017     -0.15193823452185     -0.65778024934906
| 12>   O   -3.58572135234083     -0.41381228156063     -0.66316241135763
| 13>   O   -1.92433158825282     -2.52864992291818     -0.51580391416738
| 14>   C   2.07254230843299      0.32062691950454     -0.62897391317011
| 15>   C   2.59688952783418      0.81671712816984      0.74692427992473
| 16>   N   2.29417247308532     -0.00772568297818      1.90470114060713
| 17>   H   0.61364608113884     -2.00410214258273     -0.53555022605076
| 18>   H   -2.32909621677533      1.99682045798228     -0.90573278438524
| 19>   H   0.16370434487877      2.27823462149563     -0.93322302620134
| 20>   H   -4.07878268048576      0.41214685392104     -0.52163489198492
| 21>   H   -2.89608704350153     -2.43580962055596     -0.46908141968379
| 22>   H   2.39885006306158      1.03805958557108     -1.40123780616043
| 23>   H   2.55394622600656     -0.64213085530320     -0.86410418003237
| 24>   H   3.69070714859285      0.93260097539572      0.65889521044748
| 25>   H   2.18767758556222      1.82083195195631      0.94448686974280
| 26>   H   2.44906575991656     -0.99940773762992      1.71297979768613
| 27>   H   1.31334708284397      0.11177370463832      2.19036167532160
| 28>   Cu  -0.76104833024236      1.38869542973756      3.55378619463678
| 29>   Cu  -0.90231218073743      1.34848631730894      1.27914544273847
| 30> *
| 31> 
| 32> $new_job
| 33> 
| 34> ! PBE D3 def2-TZVP opt numfreq PModel NOAUTOSTART
| 35> %pal nprocs=16 end
| 36> %geom maxiter=150 end
| 37> %base "protonated"
| 38> *xyz 1 1
| 39>   C   -1.20661357689354     -1.45431065807185      0.23915410067834
| 40>   C   0.18080272167414      0.76597883507734     -0.63943979050316
| 41>   C   -1.84022678606532     -0.21389927337275      0.22989182148545
| 42>   C   0.11649146496039     -1.60120666607614     -0.17776263329569
| 43>   C   0.82256444951849     -0.48405024838925     -0.63319730972596
| 44>   C   -1.15118947730111      0.94129322908219     -0.21459291125906
| 45>   O   -3.15989923602137     -0.09698218083106      0.63966178899929
| 46>   O   -1.64170344515097      2.18514265459222     -0.28776158487850
| 47>   C   2.28643979704144     -0.57081524893069     -0.99028983373450
| 48>   C   3.15235991807869     -0.36639833991469      0.25889981121719
| 49>   N   2.74724078792159      0.93048767648188      0.93212626327277
| 50>   H   1.69939864059347      1.00522996649901      0.84142859466253
| 51>   H   3.01774940835792      0.96796785180489      1.92281160004892
| 52>   H   3.15216557500963      1.74803396082996      0.45592371204498
| 53>   H   -1.76476188426547     -2.33111862510753      0.57827681540454
| 54>   H   0.66265397372222      1.64542575781901     -1.07789557014744
| 55>   H   0.57949673118732     -2.58870747193968     -0.16471605246219
| 56>   H   -3.53292388642051     -0.98215124456335      0.81447857713955
| 57>   H   -2.59367338884093      2.28495818133894      0.06560600621293
| 58>   H   2.55119969586672      0.17385340676755     -1.75747237155169
| 59>   H   2.54165582671357     -1.55681445337732     -1.40292901202242
| 60>   H   2.97094457898132     -1.16006647988676      0.99424736818100
| 61>   H   4.22598593599657     -0.31135954735509      0.04022103633644
| 62>   Cu  -4.30424418457165      1.64724166122639      0.90699918538661
| 63>   Cu  -4.74127059021661      3.85812435480776      0.78300696232407
| 64> *
| 65> 
| 66> $new_job
| 67> 
| 68> ! PBE D3 def2-TZVP opt numfreq PModel NOAUTOSTART
| 69> %pal nprocs=16 end
| 70> %geom maxiter=150 end
| 71> %base "deprotonated"
| 72> *xyz -1 1
| 73>   O   1.71205046751449     -2.23313691065912      0.22424909328949
| 74>   O   3.13955803537721      0.18058519956554     -0.40680228439665
| 75>   N   -3.08879826210516     -0.82723847512955     -1.20054856600659
| 76>   C   -2.39045161117211      0.33169982119668      0.96359664622535
| 77>   C   -0.91335982023434      0.29000302637157      0.66018140250120
| 78>   C   -3.26176732318113      0.32705097977960     -0.31209713450142
| 79>   C   -0.23198237941415     -0.93401151754626      0.60336724296093
| 80>   C   -0.21087146661640      1.46147081914225      0.35168552645275
| 81>   C   1.13326504093474     -1.04987948137398      0.25078174182185
| 82>   C   1.14219364484310      1.39079167063047     -0.00242814537380
| 83>   C   1.81633562743956      0.17246276951493     -0.05938594723357
| 84>   H   -2.63484706131066      1.23550799691232      1.55060900415047
| 85>   H   -2.67105463588840     -0.53827686810641      1.58371886693788
| 86>   H   -3.03323211339681      1.23368856626748     -0.89646879145825
| 87>   H   -4.32830391795847      0.38915409606628     -0.03199812237198
| 88>   H   -0.75041355090178     -1.86376298079453      0.85586033364364
| 89>   H   -0.71402325131745      2.43138475816256      0.39170119633417
| 90>   H   1.70615101953204      2.29713222147484     -0.23675033943242
| 91>   H   -3.29823032168097     -1.68047274653129     -0.67277393591353
| 92>   H   -2.08869356339600     -0.90341914972134     -1.41928549632464
| 93>   H   3.46379353592006     -0.76328457647948     -0.39035917770760
| 94>   Cu  5.57460618087899     -3.55781798002944     -0.65725769757763
| 95>   Cu  3.44643867384966     -2.82993498486810     -0.17135054269965
| 96> *
| 97> 
| 98> $new_job
| 99> 
|100> ! PBE D3 def2-TZVP opt numfreq PModel NOAUTOSTART
|101> %pal nprocs=16 end
|102> %geom maxiter=150 end
|103> %base "2x_deprotonated"
|104> *xyz -2 1
|105>   O   -1.70050135957179     -2.51196202725962      0.26298886505696
|106>   O   -3.13730178989436     -0.30712238943989     -0.56819403955072
|107>   N   3.05365045632018      0.59984804081173     -1.41032029419824
|108>   C   2.30881435724787      0.25727540394034      0.99464982079355
|109>   C   0.85258737924281      0.12816170253619      0.63355598089171
|110>   C   3.25644705580067     -0.14758734496779     -0.15665926400788
|111>   C   0.22000361572819     -1.13877375038568      0.63952238614623
|112>   C   0.11194977985004      1.23859929227795      0.21054639192962
|113>   C   -1.12138682259216     -1.34058174716131      0.24203704962948
|114>   C   -1.22972710851574      1.08897135322572     -0.19964404660009
|115>   C   -1.89090777667183     -0.16018006526936     -0.20385784915493
|116>   H   2.53270401175927      1.30783515686861      1.26880892801010
|117>   H   2.55863654753382     -0.36435814480317      1.87917485905516
|118>   H   3.09827680790676     -1.21549418051181     -0.38008283933979
|119>   H   4.31463660316044     -0.03152770871363      0.15159259161238
|120>   H   0.77783994893336     -2.02381663126134      0.97381007438827
|121>   H   0.57915577665363      2.23253676749542      0.21304923297416
|122>   H   -1.81120169375170      1.96299840816148     -0.51651264847928
|123>   H   3.17178587994436      1.59681981313921     -1.18870081149310
|124>   H   2.04193382408914      0.53056924615686     -1.59889240408326
|125>   Cu  -3.64542983594845     -2.28748250503039     -0.36681902788438
|126>   Cu  -5.57721056550850     -3.65209949645151     -0.68167001528498
|127> *
|128> 
|129> $new_job
|130> 
|131> ! PBE D3 def2-TZVP opt numfreq PModel NOAUTOSTART
|132> %pal nprocs=16 end
|133> %geom maxiter=150 end
|134> %base "zwitterione"
|135> *xyz 0 1
|136>   O   2.19510147299204     -2.09069239983479      1.13034929523899
|137>   C   1.58707191429648     -0.89471473766054      1.01152829642755
|138>   C   0.19318255805011     -0.89329810074501      0.87375757262784
|139>   C   -0.56360934211095      0.30850108520129      0.78260081075749
|140>   C   -1.98416819787831      0.22314847227995      0.30296574334414
|141>   C   -1.98166712117428      0.24985824459205     -1.24369744996160
|142>   N   -0.89802463033063     -0.68405612149387     -1.73198074708739
|143>   H   -0.42298867673849     -0.34859500191594     -2.57543859483116
|144>   H   -0.18637722199477     -0.74789009824098     -0.89348471348986
|145>   H   -1.25001270581816     -1.63132987284065     -1.90867151631523
|146>   C   0.13611147748540      1.51869357920583      0.80725148383539
|147>   C   1.52435064176545      1.53491423446154      0.93896705799413
|148>   C   2.31547416612399      0.35859565826629      1.02017331519534
|149>   O   3.60715568873215      0.43169371153118      1.11048681818250
|150>   H   3.20189082938439     -1.96695000956664      1.16271561815062
|151>   H   -0.31725400894832     -1.86063450093910      0.94955494040601
|152>   H   -2.47498476490351     -0.69756961228014      0.65858078050246
|153>   H   -2.59532194428171      1.07199244658408      0.64264635467521
|154>   H   -2.93544214955871     -0.04814526639486     -1.70198032607622
|155>   H   -1.70671341910226      1.25085687444788     -1.59615125398899
|156>   H   -0.40767379298852      2.46380657468923      0.71898326666022
|157>   H   2.06300835330370      2.48345534418680      0.97890807007855
|158>   Cu  4.89879006575489     -0.95345584773353      1.27598639836139
|159>   Cu  6.16960852138600     -2.83975765819905      1.41392713407761
|160> *
|161> 
|162>                          ****END OF INPUT****
================================================================================


                 $$$$$$$$$$$$$$$$$$$$$$$$$$$$$$$$$$$$$$$$$$$$$$ 
                 $ THERE ARE  5 JOBS TO BE PROCESSED THIS RUN $
                 $$$$$$$$$$$$$$$$$$$$$$$$$$$$$$$$$$$$$$$$$$$$$$ 




                 $$$$$$$$$$$$$$$$  JOB NUMBER  1 $$$$$$$$$$$$$$


                       *****************************
                       * Geometry Optimization Run *
                       *****************************

Geometry optimization settings:
Update method            Update   .... BFGS
Choice of coordinates    CoordSys .... Z-matrix Internals
Initial Hessian          InHess   .... Almoef's Model

Convergence Tolerances:
Energy Change            TolE     ....  5.0000e-06 Eh
Max. Gradient            TolMAXG  ....  3.0000e-04 Eh/bohr
RMS Gradient             TolRMSG  ....  1.0000e-04 Eh/bohr
Max. Displacement        TolMAXD  ....  4.0000e-03 bohr
RMS Displacement         TolRMSD  ....  2.0000e-03 bohr
Strict Convergence                ....  False
------------------------------------------------------------------------------
                        ORCA OPTIMIZATION COORDINATE SETUP
------------------------------------------------------------------------------

The optimization will be done in new redundant internal coordinates
Making redundant internal coordinates   ...  (new redundants) done
Evaluating the initial hessian          ...  (Almloef) done
Evaluating the coordinates              ...  done
Calculating the B-matrix                .... done
Calculating the G-matrix                .... done
Diagonalizing the G-matrix              .... done
Small eigenvalue found = 1.584e-02
The first mode is                       ....  129
The number of degrees of freedom        ....   66

    -----------------------------------------------------------------
                    Redundant Internal Coordinates


    -----------------------------------------------------------------
         Definition                    Initial Value    Approx d2E/dq
    -----------------------------------------------------------------
      1. B(C   2,C   0)                  1.3998         0.602789   
      2. B(C   3,C   0)                  1.3981         0.606448   
      3. B(C   4,C   3)                  1.4164         0.566956   
      4. B(C   4,C   1)                  1.4234         0.552622   
      5. B(C   5,C   2)                  1.4049         0.591472   
      6. B(C   5,C   1)                  1.4051         0.591113   
      7. B(O   6,C   5)                  1.3739         0.593627   
      8. B(O   7,C   2)                  1.3599         0.625073   
      9. B(C   8,C   3)                  1.5022         0.413732   
     10. B(C   9,C   8)                  1.5538         0.342361   
     11. B(N  10,C   9)                  1.4532         0.443653   
     12. B(H  11,C   0)                  1.0911         0.358589   
     13. B(H  12,C   1)                  1.0931         0.355990   
     14. B(H  13,C   4)                  1.0918         0.357783   
     15. B(H  14,O   6)                  0.9723         0.497003   
     16. B(H  15,O   7)                  0.9773         0.487943   
     17. B(H  16,C   8)                  1.1034         0.342753   
     18. B(H  17,C   8)                  1.1018         0.344838   
     19. B(H  18,C   9)                  1.1035         0.342732   
     20. B(H  19,C   9)                  1.1021         0.344382   
     21. B(H  20,N  10)                  1.0219         0.414272   
     22. B(H  21,N  10)                  1.0285         0.404214   
     23. B(Cu 23,C   5)                  2.7900         0.036914   
     24. B(Cu 23,C   4)                  2.1271         0.421493   
     25. B(Cu 23,C   3)                  2.7319         0.045701   
     26. B(Cu 23,Cu 22)                  2.2794         2.438051   
     27. B(Cu 23,C   1)                  2.1668         0.364359   
     28. A(C   2,C   0,H  11)          117.8953         0.350983   
     29. A(C   3,C   0,H  11)          120.3386         0.351342   
     30. A(C   2,C   0,C   3)          121.7656         0.430164   
     31. A(C   4,C   1,H  12)          120.2222         0.345459   
     32. A(H  12,C   1,Cu 23)          106.4290         0.358543   
     33. A(C   5,C   1,Cu 23)          100.5515         0.438554   
     34. A(C   4,C   1,Cu 23)           69.1415         0.433267   
     35. A(C   5,C   1,H  12)          119.6133         0.349397   
     36. A(C   4,C   1,C   5)          119.7005         0.421586   
     37. A(C   5,C   2,O   7)          120.5744         0.428222   
     38. A(C   0,C   2,O   7)          119.6266         0.429681   
     39. A(C   0,C   2,C   5)          119.7990         0.428238   
     40. A(C   4,C   3,Cu 23)           50.2870         0.305444   
     41. A(C   4,C   3,C   8)          120.3824         0.397567   
     42. A(C   0,C   3,C   4)          118.5026         0.425464   
     43. A(C   0,C   3,Cu 23)           97.1724         0.308768   
     44. A(C   0,C   3,C   8)          121.0459         0.402306   
     45. A(C   8,C   3,Cu 23)          117.7935         0.290547   
     46. A(C   1,C   4,C   3)          120.2959         0.418460   
     47. A(H  13,C   4,Cu 23)          104.7011         0.367894   
     48. A(C   3,C   4,Cu 23)           98.9000         0.446874   
     49. A(C   1,C   4,Cu 23)           72.1536         0.444806   
     50. A(C   3,C   4,H  13)          119.9626         0.347243   
     51. A(C   1,C   4,H  13)          119.3507         0.345750   
     52. A(C   2,C   5,Cu 23)           96.4286         0.297218   
     53. A(O   6,C   5,Cu 23)          125.0870         0.295674   
     54. A(C   1,C   5,C   2)          119.9340         0.426740   
     55. A(C   1,C   5,O   6)          124.3576         0.424236   
     56. A(C   2,C   5,O   6)          115.7020         0.424282   
     57. A(C   1,C   5,Cu 23)           49.7726         0.297189   
     58. A(C   5,O   6,H  14)          109.5924         0.364534   
     59. A(C   2,O   7,H  15)          107.4546         0.366613   
     60. A(H  16,C   8,H  17)          106.8322         0.286650   
     61. A(C   9,C   8,H  17)          108.6946         0.317467   
     62. A(C   3,C   8,C   9)          113.6382         0.364275   
     63. A(C   3,C   8,H  17)          109.3066         0.327471   
     64. A(C   9,C   8,H  16)          108.2020         0.317153   
     65. A(C   3,C   8,H  16)          109.9355         0.327144   
     66. A(N  10,C   9,H  19)          107.2602         0.329204   
     67. A(C   8,C   9,H  19)          108.9245         0.317398   
     68. A(N  10,C   9,H  18)          109.2463         0.328943   
     69. A(C   8,C   9,H  18)          107.3022         0.317150   
     70. A(C   8,C   9,N  10)          117.0053         0.366359   
     71. A(H  18,C   9,H  19)          106.6584         0.286588   
     72. A(H  20,N  10,H  21)          108.0237         0.297910   
     73. A(C   9,N  10,H  21)          110.7325         0.335171   
     74. A(C   9,N  10,H  20)          111.6862         0.336544   
     75. A(C   5,Cu 23,Cu 22)          137.0476         0.457797   
     76. A(C   4,Cu 23,Cu 22)          158.9770         0.728973   
     77. A(C   1,Cu 23,Cu 22)          161.8779         0.708217   
     78. A(C   4,Cu 23,C   5)           57.7899         0.311724   
     79. A(C   3,Cu 23,C   5)           61.7507         0.223705   
     80. A(C   1,Cu 23,C   5)           29.6758         0.304501   
     81. A(C   3,Cu 23,Cu 22)          133.6354         0.476058   
     82. A(C   3,Cu 23,C   4)           30.8130         0.322753   
     83. A(C   1,Cu 23,C   4)           38.7050         0.462959   
     84. A(C   1,Cu 23,C   3)           59.0327         0.315172   
     85. D(C   5,C   2,C   0,C   3)     -0.3732         0.025061   
     86. D(O   7,C   2,C   0,C   3)    179.7271         0.025061   
     87. D(C   5,C   2,C   0,H  11)    179.3611         0.025061   
     88. D(O   7,C   2,C   0,H  11)     -0.5386         0.025061   
     89. D(C   8,C   3,C   0,C   2)    177.3243         0.027577   
     90. D(C   4,C   3,C   0,H  11)   -179.3923         0.027577   
     91. D(C   8,C   3,C   0,H  11)     -2.4036         0.027577   
     92. D(C   4,C   3,C   0,C   2)      0.3356         0.027577   
     93. D(Cu 23,C   3,C   0,H  11)   -131.0338         0.027577   
     94. D(Cu 23,C   3,C   0,C   2)     48.6941         0.027577   
     95. D(H  13,C   4,C   1,C   5)    172.3566         0.024355   
     96. D(C   3,C   4,C   1,C   5)     -0.4656         0.024355   
     97. D(H  13,C   4,C   1,H  12)      0.2016         0.024355   
     98. D(Cu 23,C   4,C   1,C   5)    -90.4732         0.024355   
     99. D(C   1,C   4,C   3,C   8)   -176.9238         0.025700   
    100. D(Cu 23,C   4,C   3,C   8)   -102.4556         0.025700   
    101. D(C   3,C   4,C   1,H  12)   -172.6206         0.024355   
    102. D(C   1,C   4,C   3,Cu 23)    -74.4682         0.025700   
    103. D(Cu 23,C   4,C   1,H  12)     97.3718         0.024355   
    104. D(H  13,C   4,C   3,C   0)   -172.6926         0.025700   
    105. D(C   1,C   4,C   3,C   0)      0.0855         0.025700   
    106. D(H  13,C   4,C   3,Cu 23)    112.7536         0.025700   
    107. D(H  13,C   4,C   3,C   8)     10.2981         0.025700   
    108. D(Cu 23,C   4,C   3,C   0)     74.5537         0.025700   
    109. D(H  13,C   4,C   1,Cu 23)    -97.1702         0.024355   
    110. D(C   3,C   4,C   1,Cu 23)     90.0076         0.024355   
    111. D(O   6,C   5,C   1,C   4)   -178.6068         0.028069   
    112. D(C   2,C   5,C   1,Cu 23)    -71.4671         0.028069   
    113. D(O   6,C   5,C   1,H  12)     -6.4037         0.028069   
    114. D(C   2,C   5,C   1,H  12)    172.6336         0.028069   
    115. D(O   6,C   5,C   2,C   0)    179.0987         0.026155   
    116. D(Cu 23,C   5,C   2,C   0)    -46.7780         0.026155   
    117. D(Cu 23,C   5,C   2,O   7)    133.1207         0.026155   
    118. D(O   6,C   5,C   2,O   7)     -1.0026         0.026155   
    119. D(C   2,C   5,C   1,C   4)      0.4305         0.028069   
    120. D(C   1,C   5,C   2,O   7)    179.8794         0.026155   
    121. D(C   1,C   5,C   2,C   0)     -0.0194         0.026155   
    122. D(Cu 23,C   5,C   1,H  12)   -115.8992         0.028069   
    123. D(Cu 23,C   5,C   1,C   4)     71.8977         0.028069   
    124. D(O   6,C   5,C   1,Cu 23)    109.4955         0.028069   
    125. D(H  14,O   6,C   5,Cu 23)     48.7731         0.028352   
    126. D(H  14,O   6,C   5,C   2)    168.1112         0.028352   
    127. D(H  14,O   6,C   5,C   1)    -12.8146         0.028352   
    128. D(H  15,O   7,C   2,C   5)     -3.1794         0.028700   
    129. D(H  15,O   7,C   2,C   0)    176.7195         0.028700   
    130. D(H  17,C   8,C   3,C   0)     18.8959         0.013553   
    131. D(H  16,C   8,C   3,C   0)    135.8607         0.013553   
    132. D(C   9,C   8,C   3,Cu 23)     16.1084         0.013553   
    133. D(C   9,C   8,C   3,C   0)   -102.7091         0.013553   
    134. D(C   9,C   8,C   3,C   4)     74.2232         0.013553   
    135. D(H  16,C   8,C   3,C   4)    -47.2070         0.013553   
    136. D(H  17,C   8,C   3,C   4)   -164.1718         0.013553   
    137. D(H  17,C   8,C   3,Cu 23)    137.7135         0.013553   
    138. D(H  16,C   8,C   3,Cu 23)   -105.3217         0.013553   
    139. D(H  19,C   9,C   8,H  16)     59.3278         0.009479   
    140. D(H  19,C   9,C   8,C   3)    -63.0646         0.009479   
    141. D(H  18,C   9,C   8,H  17)     59.8895         0.009479   
    142. D(H  18,C   9,C   8,H  16)    -55.7728         0.009479   
    143. D(H  18,C   9,C   8,C   3)   -178.1653         0.009479   
    144. D(N  10,C   9,C   8,H  17)    -63.2214         0.009479   
    145. D(N  10,C   9,C   8,H  16)   -178.8837         0.009479   
    146. D(H  19,C   9,C   8,H  17)    174.9901         0.009479   
    147. D(N  10,C   9,C   8,C   3)     58.7239         0.009479   
    148. D(H  21,N  10,C   9,H  19)     46.5050         0.016786   
    149. D(H  21,N  10,C   9,H  18)    161.7464         0.016786   
    150. D(H  21,N  10,C   9,C   8)    -76.1462         0.016786   
    151. D(H  20,N  10,C   9,H  19)    166.9398         0.016786   
    152. D(H  20,N  10,C   9,H  18)    -77.8188         0.016786   
    153. D(H  20,N  10,C   9,C   8)     44.2886         0.016786   
    154. D(Cu 22,Cu 23,C   5,C   2)    -76.9993         0.001508   
    155. D(Cu 22,Cu 23,C   5,C   1)    158.7782         0.001508   
    156. D(C   4,Cu 23,C   5,O   6)   -148.7730         0.001508   
    157. D(C   4,Cu 23,C   5,C   1)    -40.7666         0.001508   
    158. D(C   3,Cu 23,C   5,O   6)    175.6974         0.001508   
    159. D(C   3,Cu 23,C   5,C   2)     47.9264         0.001508   
    160. D(C   1,Cu 23,C   5,O   6)   -108.0065         0.001508   
    161. D(C   1,Cu 23,C   5,C   2)    124.2225         0.001508   
    162. D(Cu 22,Cu 23,C   4,H  13)    -71.7123         0.002336   
    163. D(Cu 22,Cu 23,C   4,C   3)     52.6008         0.002336   
    164. D(Cu 22,Cu 23,C   4,C   1)    171.6794         0.002336   
    165. D(C   5,Cu 23,C   4,H  13)    147.7395         0.002336   
    166. D(C   5,Cu 23,C   4,C   3)    -87.9474         0.002336   
    167. D(C   3,Cu 23,C   4,H  13)   -124.3131         0.002336   
    168. D(C   3,Cu 23,C   4,C   1)    119.0786         0.002336   
    169. D(C   1,Cu 23,C   4,H  13)    116.6083         0.002336   
    170. D(C   1,Cu 23,C   4,C   3)   -119.0786         0.002336   
    171. D(Cu 22,Cu 23,C   3,C   8)    -49.0272         0.001512   
    172. D(Cu 22,Cu 23,C   3,C   4)   -156.8104         0.001512   
    173. D(Cu 22,Cu 23,C   3,C   0)     81.8098         0.001512   
    174. D(C   5,Cu 23,C   3,C   8)   -178.5012         0.001512   
    175. D(C   5,Cu 23,C   3,C   4)     73.7156         0.001512   
    176. D(C   5,Cu 23,C   3,C   0)    -47.6642         0.001512   
    177. D(C   4,Cu 23,C   3,C   8)    107.7832         0.001512   
    178. D(C   5,Cu 23,C   4,C   1)     31.1312         0.002336   
    179. D(C   4,Cu 23,C   3,C   0)   -121.3798         0.001512   
    180. D(C   1,Cu 23,C   3,C   8)    147.3769         0.001512   
    181. D(C   1,Cu 23,C   3,C   4)     39.5936         0.001512   
    182. D(C   1,Cu 23,C   3,C   0)    -81.7862         0.001512   
    183. D(Cu 22,Cu 23,C   1,H  12)     72.9134         0.002127   
    184. D(Cu 22,Cu 23,C   1,C   5)    -52.4643         0.002127   
    185. D(Cu 22,Cu 23,C   1,C   4)   -170.3922         0.002127   
    186. D(C   3,Cu 23,C   5,C   1)    -76.2961         0.001508   
    187. D(C   5,Cu 23,C   1,H  12)    125.3777         0.002127   
    188. D(C   5,Cu 23,C   1,C   4)   -117.9279         0.002127   
    189. D(C   4,Cu 23,C   1,H  12)   -116.6944         0.002127   
    190. D(C   4,Cu 23,C   5,C   2)     83.4560         0.001508   
    191. D(C   4,Cu 23,C   1,C   5)    117.9279         0.002127   
    192. D(C   3,Cu 23,C   1,H  12)   -148.1670         0.002127   
    193. D(C   3,Cu 23,C   1,C   5)     86.4553         0.002127   
    194. D(Cu 22,Cu 23,C   5,O   6)     50.7718         0.001508   
    195. D(C   3,Cu 23,C   1,C   4)    -31.4726         0.002127   
    -----------------------------------------------------------------

Number of atoms                         .... 24
Number of degrees of freedom            .... 195

         *************************************************************
         *                GEOMETRY OPTIMIZATION CYCLE   1            *
         *************************************************************
---------------------------------
CARTESIAN COORDINATES (ANGSTROEM)
---------------------------------
  C     -0.008403   -1.109915   -0.599429
  C     -1.678857    1.135375   -0.732467
  C     -1.398136   -1.276952   -0.590913
  C      0.580336    0.155572   -0.680973
  C     -0.264049    1.290771   -0.749166
  C     -2.236990   -0.151938   -0.657780
  O     -3.585721   -0.413812   -0.663162
  O     -1.924332   -2.528650   -0.515804
  C      2.072542    0.320627   -0.628974
  C      2.596890    0.816717    0.746924
  N      2.294172   -0.007726    1.904701
  H      0.613646   -2.004102   -0.535550
  H     -2.329096    1.996820   -0.905733
  H      0.163704    2.278235   -0.933223
  H     -4.078783    0.412147   -0.521635
  H     -2.896087   -2.435810   -0.469081
  H      2.398850    1.038060   -1.401238
  H      2.553946   -0.642131   -0.864104
  H      3.690707    0.932601    0.658895
  H      2.187678    1.820832    0.944487
  H      2.449066   -0.999408    1.712980
  H      1.313347    0.111774    2.190362
  Cu    -0.761048    1.388695    3.553786
  Cu    -0.902312    1.348486    1.279145

----------------------------
CARTESIAN COORDINATES (A.U.)
----------------------------
  NO LB      ZA    FRAG     MASS         X           Y           Z
   0 C     6.0000    0    12.011   -0.015880   -2.097436   -1.132756
   1 C     6.0000    0    12.011   -3.172579    2.145548   -1.384161
   2 C     6.0000    0    12.011   -2.642094   -2.413089   -1.116664
   3 C     6.0000    0    12.011    1.096676    0.293989   -1.286853
   4 C     6.0000    0    12.011   -0.498980    2.439204   -1.415719
   5 C     6.0000    0    12.011   -4.227298   -0.287122   -1.243025
   6 O     8.0000    0    15.999   -6.776031   -0.781992   -1.253195
   7 O     8.0000    0    15.999   -3.636460   -4.778456   -0.974728
   8 C     6.0000    0    12.011    3.916537    0.605897   -1.188588
   9 C     6.0000    0    12.011    4.907410    1.543372    1.411482
  10 N     7.0000    0    14.007    4.335358   -0.014599    3.599364
  11 H     1.0000    0     1.008    1.159623   -3.787204   -1.012043
  12 H     1.0000    0     1.008   -4.401354    3.773444   -1.711587
  13 H     1.0000    0     1.008    0.309356    4.305240   -1.763536
  14 H     1.0000    0     1.008   -7.707782    0.778845   -0.985747
  15 H     1.0000    0     1.008   -5.472811   -4.603013   -0.886435
  16 H     1.0000    0     1.008    4.533170    1.961648   -2.647956
  17 H     1.0000    0     1.008    4.826259   -1.213451   -1.632920
  18 H     1.0000    0     1.008    6.974426    1.762360    1.245131
  19 H     1.0000    0     1.008    4.134112    3.440874    1.784822
  20 H     1.0000    0     1.008    4.628064   -1.888607    3.237063
  21 H     1.0000    0     1.008    2.481866    0.211222    4.139184
  22 Cu   29.0000    0    63.550   -1.438173    2.624254    6.715683
  23 Cu   29.0000    0    63.550   -1.705123    2.548270    2.417235

--------------------------------
INTERNAL COORDINATES (ANGSTROEM)
--------------------------------
 C      0   0   0     0.000000000000     0.00000000     0.00000000
 C      1   0   0     2.801685619786     0.00000000     0.00000000
 C      1   2   0     1.399760909824    60.26179709     0.00000000
 C      1   2   3     1.398113726230    61.50486615   179.62956013
 C      4   1   2     1.416443576298   118.50257152   359.95729973
 C      3   1   2     1.404920383936   119.79897340     0.00000000
 O      6   3   1     1.373930302555   115.70199437   179.09869771
 O      3   1   2     1.359879411436   119.62659890   180.10998581
 C      4   1   2     1.502207515839   121.04592154   176.94593556
 C      9   4   1     1.553750732707   113.63818279   257.29086662
 N     10   9   4     1.453200200668   117.00530165    58.72385890
 H      1   2   3     1.091144288351   178.07144386   342.70444787
 H      2   1   3     1.093124402177   173.58933929   271.56186381
 H      5   4   1     1.091756982157   119.96256723   187.30737394
 H      7   6   3     0.972290083019   109.59237765   168.11119339
 H      8   3   1     0.977297793940   107.45455046   176.71947965
 H      9   4   1     1.103439124504   109.93550560   135.86069574
 H      9   4   1     1.101788776128   109.30661130    18.89590089
 H     10   9   4     1.103456012083   107.30217443   181.83473882
 H     10   9   4     1.102148796643   108.92445012   296.93536164
 H     11  10   9     1.021852387165   111.68621642    44.28856353
 H     11  10   9     1.028542896955   110.73245785   283.85376443
 Cu    22  11  10     2.791517838333   153.82184517   274.62696558
 Cu     5   4   1     2.127148258899    98.90001935    74.55373058

---------------------------
INTERNAL COORDINATES (A.U.)
---------------------------
 C      0   0   0     0.000000000000     0.00000000     0.00000000
 C      1   0   0     5.294418534741     0.00000000     0.00000000
 C      1   2   0     2.645164772535    60.26179709     0.00000000
 C      1   2   3     2.642052046651    61.50486615   179.62956013
 C      4   1   2     2.676690443355   118.50257152   359.95729973
 C      3   1   2     2.654914765603   119.79897340     0.00000000
 O      6   3   1     2.596351998924   115.70199437   179.09869771
 O      3   1   2     2.569799662771   119.62659890   180.10998581
 C      4   1   2     2.838760801254   121.04592154   176.94593556
 C      9   4   1     2.936163365197   113.63818279   257.29086662
 N     10   9   4     2.746150397022   117.00530165    58.72385890
 H      1   2   3     2.061963877575   178.07144386   342.70444787
 H      2   1   3     2.065705750420   173.58933929   271.56186381
 H      5   4   1     2.063121701074   119.96256723   187.30737394
 H      7   6   3     1.837361979634   109.59237765   168.11119339
 H      8   3   1     1.846825181831   107.45455046   176.71947965
 H      9   4   1     2.085197750767   109.93550560   135.86069574
 H      9   4   1     2.082079044311   109.30661130    18.89590089
 H     10   9   4     2.085229663667   107.30217443   181.83473882
 H     10   9   4     2.082759384486   108.92445012   296.93536164
 H     11  10   9     1.931021161036   111.68621642    44.28856353
 H     11  10   9     1.943664392235   110.73245785   283.85376443
 Cu    22  11  10     5.275204212406   153.82184517   274.62696558
 Cu     5   4   1     4.019727655566    98.90001935    74.55373058

---------------------
BASIS SET INFORMATION
---------------------
There are 5 groups of distinct atoms

 Group   1 Type C   : 11s6p2d1f contracted to 5s3p2d1f pattern {62111/411/11/1}
 Group   2 Type O   : 11s6p2d1f contracted to 5s3p2d1f pattern {62111/411/11/1}
 Group   3 Type N   : 11s6p2d1f contracted to 5s3p2d1f pattern {62111/411/11/1}
 Group   4 Type H   : 5s1p contracted to 3s1p pattern {311/1}
 Group   5 Type Cu  : 17s11p7d1f contracted to 6s4p4d1f pattern {842111/6311/4111/1}

Atom   0C    basis set group =>   1
Atom   1C    basis set group =>   1
Atom   2C    basis set group =>   1
Atom   3C    basis set group =>   1
Atom   4C    basis set group =>   1
Atom   5C    basis set group =>   1
Atom   6O    basis set group =>   2
Atom   7O    basis set group =>   2
Atom   8C    basis set group =>   1
Atom   9C    basis set group =>   1
Atom  10N    basis set group =>   3
Atom  11H    basis set group =>   4
Atom  12H    basis set group =>   4
Atom  13H    basis set group =>   4
Atom  14H    basis set group =>   4
Atom  15H    basis set group =>   4
Atom  16H    basis set group =>   4
Atom  17H    basis set group =>   4
Atom  18H    basis set group =>   4
Atom  19H    basis set group =>   4
Atom  20H    basis set group =>   4
Atom  21H    basis set group =>   4
Atom  22Cu   basis set group =>   5
Atom  23Cu   basis set group =>   5
---------------------------------
AUXILIARY/J BASIS SET INFORMATION
---------------------------------
There are 5 groups of distinct atoms

 Group   1 Type C   : 12s5p4d2f1g contracted to 6s4p3d1f1g pattern {711111/2111/211/2/1}
 Group   2 Type O   : 12s5p4d2f1g contracted to 6s4p3d1f1g pattern {711111/2111/211/2/1}
 Group   3 Type N   : 12s5p4d2f1g contracted to 6s4p3d1f1g pattern {711111/2111/211/2/1}
 Group   4 Type H   : 5s2p1d contracted to 3s1p1d pattern {311/2/1}
 Group   5 Type Cu  : 19s5p5d3f3g contracted to 8s5p4d3f3g pattern {121111111/11111/2111/111/111}

Atom   0C    basis set group =>   1
Atom   1C    basis set group =>   1
Atom   2C    basis set group =>   1
Atom   3C    basis set group =>   1
Atom   4C    basis set group =>   1
Atom   5C    basis set group =>   1
Atom   6O    basis set group =>   2
Atom   7O    basis set group =>   2
Atom   8C    basis set group =>   1
Atom   9C    basis set group =>   1
Atom  10N    basis set group =>   3
Atom  11H    basis set group =>   4
Atom  12H    basis set group =>   4
Atom  13H    basis set group =>   4
Atom  14H    basis set group =>   4
Atom  15H    basis set group =>   4
Atom  16H    basis set group =>   4
Atom  17H    basis set group =>   4
Atom  18H    basis set group =>   4
Atom  19H    basis set group =>   4
Atom  20H    basis set group =>   4
Atom  21H    basis set group =>   4
Atom  22Cu   basis set group =>   5
Atom  23Cu   basis set group =>   5
No protocol specified


           ************************************************************
           *        Program running with 16 parallel MPI-processes    *
           *              working on a common directory               *
           ************************************************************
------------------------------------------------------------------------------
                           ORCA GTO INTEGRAL CALCULATION
                           -- RI-GTO INTEGRALS CHOSEN --
------------------------------------------------------------------------------
------------------------------------------------------------------------------
                   ___                                                        
                  /   \      - P O W E R E D   B Y -                         
                 /     \                                                     
                 |  |  |   _    _      __       _____    __    __             
                 |  |  |  | |  | |    /  \     |  _  \  |  |  /  |          
                  \  \/   | |  | |   /    \    | | | |  |  | /  /          
                 / \  \   | |__| |  /  /\  \   | |_| |  |  |/  /          
                |  |  |   |  __  | /  /__\  \  |    /   |      \           
                |  |  |   | |  | | |   __   |  |    \   |  |\   \          
                \     /   | |  | | |  |  |  |  | |\  \  |  | \   \       
                 \___/    |_|  |_| |__|  |__|  |_| \__\ |__|  \__/        
                                                                              
                      - O R C A' S   B I G   F R I E N D -                    
                                      &                                       
                       - I N T E G R A L  F E E D E R -                       
                                                                              
 v1 FN, 2020, v2 2021                                                         
------------------------------------------------------------------------------


Reading SHARK input file neutral.SHARKINP.tmp ... ok
----------------------
SHARK INTEGRAL PACKAGE
----------------------

Number of atoms                             ...     24
Number of basis functions                   ...    497
Number of shells                            ...    195
Maximum angular momentum                    ...      3
Integral batch strategy                     ... SHARK/LIBINT Hybrid
RI-J (if used) integral strategy            ... SPLIT-RIJ (Revised 2003 algorithm where possible)
Printlevel                                  ...      1
Contraction scheme used                     ... SEGMENTED contraction
Coulomb Range Separation                    ... NOT USED
Exchange Range Separation                   ... NOT USED
Finite Nucleus Model                        ... NOT USED
Auxiliary Coulomb fitting basis             ... AVAILABLE
   # of basis functions in Aux-J            ...    842
   # of shells in Aux-J                     ...    266
   Maximum angular momentum in Aux-J        ...      4
Auxiliary J/K fitting basis                 ... NOT available
Auxiliary Correlation fitting basis         ... NOT available
Auxiliary 'external' fitting basis          ... NOT available
Integral threshold                          ...     2.500000e-11
Primitive cut-off                           ...     2.500000e-12
Primitive pair pre-selection threshold      ...     2.500000e-12

Calculating pre-screening integrals         ... done (  0.1 sec) Dimension = 195
Organizing shell pair data                  ... done (  0.4 sec)
Shell pair information
Total number of shell pairs                 ...     19110
Shell pairs after pre-screening             ...     15639
Total number of primitive shell pairs       ...     64654
Primitive shell pairs kept                  ...     35724
          la=0 lb=0:   4009 shell pairs
          la=1 lb=0:   4300 shell pairs
          la=1 lb=1:   1191 shell pairs
          la=2 lb=0:   2475 shell pairs
          la=2 lb=1:   1342 shell pairs
          la=2 lb=2:    400 shell pairs
          la=3 lb=0:    986 shell pairs
          la=3 lb=1:    549 shell pairs
          la=3 lb=2:    318 shell pairs
          la=3 lb=3:     69 shell pairs

Calculating one electron integrals          ... done (  0.0 sec)
Calculating RI/J V-Matrix + Cholesky decomp.... done (  0.0 sec)
Calculating Nuclear repulsion               ... done (  0.0 sec) ENN=   1459.932116604207 Eh

SHARK setup successfully completed in   0.9 seconds

Maximum memory used throughout the entire GTOINT-calculation: 32.1 MB
No protocol specified


           ************************************************************
           *        Program running with 16 parallel MPI-processes    *
           *              working on a common directory               *
           ************************************************************
-------------------------------------------------------------------------------
                                 ORCA SCF
-------------------------------------------------------------------------------

------------
SCF SETTINGS
------------
Hamiltonian:
 Density Functional     Method          .... DFT(GTOs)
 Exchange Functional    Exchange        .... PBE
   PBE kappa parameter   XKappa         ....  0.804000
   PBE mue parameter    XMuePBE         ....  0.219520
 Correlation Functional Correlation     .... PBE
   PBE beta parameter  CBetaPBE         ....  0.066725
 LDA part of GGA corr.  LDAOpt          .... PW91-LDA
 Gradients option       PostSCFGGA      .... off
   Density functional embedding theory  .... OFF
   NL short-range parameter             ....  6.400000
 RI-approximation to the Coulomb term is turned on
   Number of AuxJ basis functions       .... 842


General Settings:
 Integral files         IntName         .... neutral
 Hartree-Fock type      HFTyp           .... RHF
 Total Charge           Charge          ....    0
 Multiplicity           Mult            ....    1
 Number of Electrons    NEL             ....  140
 Basis Dimension        Dim             ....  497
 Nuclear Repulsion      ENuc            ....   1459.9321166042 Eh

Convergence Acceleration:
 DIIS                   CNVDIIS         .... on
   Start iteration      DIISMaxIt       ....    12
   Startup error        DIISStart       ....  0.200000
   # of expansion vecs  DIISMaxEq       ....     5
   Bias factor          DIISBfac        ....   1.050
   Max. coefficient     DIISMaxC        ....  10.000
 Trust-Rad. Augm. Hess. CNVTRAH         .... auto
   Auto Start mean grad. ratio tolernc. ....  1.125000
   Auto Start start iteration           ....    20
   Auto Start num. interpolation iter.  ....    10
   Max. Number of Micro iterations      ....    16
   Max. Number of Macro iterations      .... Maxiter - #DIIS iter
   Number of Davidson start vectors     ....     2
   Converg. threshold I  (grad. norm)   ....   1.000e-05
   Converg. threshold II (energy diff.) ....   1.000e-08
   Grad. Scal. Fac. for Micro threshold ....   0.100
   Minimum threshold for Micro iter.    ....   0.010
   NR start threshold (gradient norm)   ....   0.001
   Initial trust radius                 ....   0.400
   Minimum AH scaling param. (alpha)    ....   1.000
   Maximum AH scaling param. (alpha)    .... 1000.000
   Orbital update algorithm             .... Taylor
   White noise on init. David. guess    .... on
   Maximum white noise                  ....   0.010
   Quad. conv. algorithm                .... NR
 SOSCF                  CNVSOSCF        .... off
 Level Shifting         CNVShift        .... on
   Level shift para.    LevelShift      ....    0.2500
   Turn off err/grad.   ShiftErr        ....    0.0010
 Zerner damping         CNVZerner       .... off
 Static damping         CNVDamp         .... on
   Fraction old density DampFac         ....    0.7000
   Max. Damping (<1)    DampMax         ....    0.9800
   Min. Damping (>=0)   DampMin         ....    0.0000
   Turn off err/grad.   DampErr         ....    0.1000
 Fernandez-Rico         CNVRico         .... off

SCF Procedure:
 Maximum # iterations   MaxIter         ....   125
 SCF integral mode      SCFMode         .... Direct
   Integral package                     .... SHARK and LIBINT hybrid scheme
 Reset frequency        DirectResetFreq ....    20
 Integral Threshold     Thresh          ....  2.500e-11 Eh
 Primitive CutOff       TCut            ....  2.500e-12 Eh

Convergence Tolerance:
 Convergence Check Mode ConvCheckMode   .... Total+1el-Energy
 Convergence forced     ConvForced      .... 0
 Energy Change          TolE            ....  1.000e-08 Eh
 1-El. energy change                    ....  1.000e-05 Eh
 DIIS Error             TolErr          ....  5.000e-07


Diagonalization of the overlap matrix:
Smallest eigenvalue                        ... 7.206e-06
Time for diagonalization                   ...    0.058 sec
Threshold for overlap eigenvalues          ... 1.000e-08
Number of eigenvalues below threshold      ... 0
Time for construction of square roots      ...    0.043 sec
Total time needed                          ...    0.103 sec

Time for model grid setup =    0.285 sec

------------------------------
INITIAL GUESS: MODEL POTENTIAL
------------------------------
Loading Hartree-Fock densities                     ... done
Calculating cut-offs                               ... done
Initializing the effective Hamiltonian             ... done
Setting up the integral package (SHARK)            ... done
Starting the Coulomb interaction                   ... done (   0.2 sec)
Reading the grid                                   ... done
Mapping shells                                     ... done
Starting the XC term evaluation                    ... done (   0.2 sec)
  promolecular density results
     # of electrons  =    139.992623320
     EX              =   -198.060441983
     EC              =     -5.470877934
     EX+EC           =   -203.531319917
Transforming the Hamiltonian                       ... done (   0.0 sec)
Diagonalizing the Hamiltonian                      ... done (   0.1 sec)
Back transforming the eigenvectors                 ... done (   0.0 sec)
Now organizing SCF variables                       ... done
                      ------------------
                      INITIAL GUESS DONE (   0.8 sec)
                      ------------------
-------------------
DFT GRID GENERATION
-------------------

General Integration Accuracy     IntAcc      ... 4.388
Radial Grid Type                 RadialGrid  ... OptM3 with GC (2021)
Angular Grid (max. ang.)         AngularGrid ... 4 (Lebedev-302)
Angular grid pruning method      GridPruning ... 4 (adaptive)
Weight generation scheme         WeightScheme... Becke
Basis function cutoff            BFCut       ... 1.0000e-11
Integration weight cutoff        WCut        ... 1.0000e-14
Angular grids for H and He will be reduced by one unit
Partially contracted basis set               ... off
Rotationally invariant grid construction     ... off

Total number of grid points                  ...   122902
Total number of batches                      ...     1931
Average number of points per batch           ...       63
Average number of grid points per atom       ...     5121
Time for grid setup =    1.086 sec

--------------
SCF ITERATIONS
--------------
ITER       Energy         Delta-E        Max-DP      RMS-DP      [F,P]     Damp
               ***  Starting incremental Fock matrix formation  ***
  0  -3796.4514916841   0.000000000000 0.26091080  0.00229062  0.2410245 0.7000
  1  -3796.6370864710  -0.185594786904 0.23866346  0.00183381  0.0914776 0.7000
                               ***Turning on DIIS***
  2  -3796.7010085435  -0.063922072517 0.28749716  0.00254770  0.0489825 0.0000
  3  -3796.8015347463  -0.100526202811 0.08340607  0.00049679  0.1034123 0.7000
  4  -3796.8172497371  -0.015714990820 0.29441437  0.00185405  0.0761659 0.0000
  5  -3796.8410944895  -0.023844752384 0.03808005  0.00028409  0.0125868 0.0000
  6  -3796.8420949591  -0.001000469566 0.01026521  0.00008785  0.0035252 0.0000
  7  -3796.8421443840  -0.000049424874 0.00537496  0.00004416  0.0025191 0.0000
  8  -3796.8421427013   0.000001682706 0.00166699  0.00001889  0.0039288 0.0000
  9  -3796.8421626938  -0.000019992542 0.00288308  0.00002336  0.0009030 0.0000
 10  -3796.8421641300  -0.000001436198 0.00157707  0.00000863  0.0006678 0.0000
 11  -3796.8421649543  -0.000000824339 0.00032139  0.00000324  0.0004587 0.0000
 12  -3796.8421651377  -0.000000183349 0.00034217  0.00000288  0.0003101 0.0000
 13  -3796.8421652836  -0.000000145943 0.00026137  0.00000253  0.0000553 0.0000
 14  -3796.8421652873  -0.000000003678 0.00030029  0.00000221  0.0000171 0.0000
 15  -3796.8421652937  -0.000000006434 0.00013514  0.00000150  0.0000121 0.0000
 16  -3796.8421653012  -0.000000007427 0.00010176  0.00000079  0.0000081 0.0000
 17  -3796.8421652990   0.000000002206 0.00012365  0.00000094  0.0000042 0.0000
 18  -3796.8421652880   0.000000010959 0.00004666  0.00000043  0.0000013 0.0000
 19  -3796.8421652769   0.000000011136 0.00048124  0.00000406  0.0000011 0.0000
               *** Restarting incremental Fock matrix formation ***
                                   *** Resetting DIIS ***
                            ***DIIS convergence achieved***

               *****************************************************
               *                     SUCCESS                       *
               *           SCF CONVERGED AFTER  20 CYCLES          *
               *****************************************************


----------------
TOTAL SCF ENERGY
----------------

Total Energy       :        -3796.84216528 Eh         -103317.32787 eV

Components:
Nuclear Repulsion  :         1459.93211660 Eh           39726.77256 eV
Electronic Energy  :        -5256.77428188 Eh         -143044.10043 eV
One Electron Energy:        -8184.59997899 Eh         -222714.28800 eV
Two Electron Energy:         2927.82569711 Eh           79670.18757 eV

Virial components:
Potential Energy   :        -7586.55015295 Eh         -206440.52490 eV
Kinetic Energy     :         3789.70798767 Eh          103123.19703 eV
Virial Ratio       :            2.00188251


DFT components:
N(Alpha)           :       70.000126525424 electrons
N(Beta)            :       70.000126525424 electrons
N(Total)           :      140.000253050848 electrons
E(X)               :     -199.397864374292 Eh       
E(C)               :       -5.481100742893 Eh       
E(XC)              :     -204.878965117185 Eh       
DFET-embed. en.    :        0.000000000000 Eh       

---------------
SCF CONVERGENCE
---------------

  Last Energy change         ...   -1.4779e-09  Tolerance :   1.0000e-08
  Last MAX-Density change    ...    1.0374e-03  Tolerance :   1.0000e-07
  Last RMS-Density change    ...    8.7158e-06  Tolerance :   5.0000e-09
  Last DIIS Error            ...    5.9993e-07  Tolerance :   5.0000e-07

             **** THE GBW FILE WAS UPDATED (neutral.gbw) ****
             **** DENSITY neutral.scfp WAS UPDATED ****
             **** ENERGY FILE WAS UPDATED (neutral.en.tmp) ****
             **** THE GBW FILE WAS UPDATED (neutral.gbw) ****
             **** DENSITY neutral.scfp WAS UPDATED ****
----------------
ORBITAL ENERGIES
----------------

  NO   OCC          E(Eh)            E(eV) 
   0   2.0000    -321.500358     -8748.4695 
   1   2.0000    -321.459537     -8747.3587 
   2   2.0000     -38.271071     -1041.4088 
   3   2.0000     -38.226569     -1040.1978 
   4   2.0000     -33.562585      -913.2844 
   5   2.0000     -33.561692      -913.2601 
   6   2.0000     -33.561152      -913.2454 
   7   2.0000     -33.517832      -912.0666 
   8   2.0000     -33.517389      -912.0545 
   9   2.0000     -33.517303      -912.0522 
  10   2.0000     -18.816041      -512.0105 
  11   2.0000     -18.798687      -511.5383 
  12   2.0000     -13.952914      -379.6781 
  13   2.0000      -9.970891      -271.3217 
  14   2.0000      -9.964245      -271.1409 
  15   2.0000      -9.926565      -270.1156 
  16   2.0000      -9.916510      -269.8419 
  17   2.0000      -9.915788      -269.8223 
  18   2.0000      -9.904449      -269.5138 
  19   2.0000      -9.902445      -269.4592 
  20   2.0000      -9.892182      -269.1800 
  21   2.0000      -4.099934      -111.5649 
  22   2.0000      -4.055683      -110.3607 
  23   2.0000      -2.639663       -71.8289 
  24   2.0000      -2.634434       -71.6866 
  25   2.0000      -2.629723       -71.5584 
  26   2.0000      -2.594669       -70.6045 
  27   2.0000      -2.588995       -70.4501 
  28   2.0000      -2.588275       -70.4305 
  29   2.0000      -1.012763       -27.5587 
  30   2.0000      -0.984212       -26.7818 
  31   2.0000      -0.807782       -21.9809 
  32   2.0000      -0.792190       -21.5566 
  33   2.0000      -0.717782       -19.5318 
  34   2.0000      -0.700535       -19.0625 
  35   2.0000      -0.652322       -17.7506 
  36   2.0000      -0.599001       -16.2997 
  37   2.0000      -0.579439       -15.7673 
  38   2.0000      -0.547406       -14.8957 
  39   2.0000      -0.522915       -14.2292 
  40   2.0000      -0.496129       -13.5004 
  41   2.0000      -0.453480       -12.3398 
  42   2.0000      -0.446865       -12.1598 
  43   2.0000      -0.427569       -11.6347 
  44   2.0000      -0.420293       -11.4368 
  45   2.0000      -0.409558       -11.1446 
  46   2.0000      -0.389666       -10.6034 
  47   2.0000      -0.386922       -10.5287 
  48   2.0000      -0.378392       -10.2966 
  49   2.0000      -0.358610        -9.7583 
  50   2.0000      -0.351602        -9.5676 
  51   2.0000      -0.342916        -9.3312 
  52   2.0000      -0.329466        -8.9652 
  53   2.0000      -0.326261        -8.8780 
  54   2.0000      -0.314969        -8.5707 
  55   2.0000      -0.299418        -8.1476 
  56   2.0000      -0.257247        -7.0001 
  57   2.0000      -0.237819        -6.4714 
  58   2.0000      -0.212599        -5.7851 
  59   2.0000      -0.211269        -5.7489 
  60   2.0000      -0.206106        -5.6084 
  61   2.0000      -0.199867        -5.4387 
  62   2.0000      -0.195118        -5.3094 
  63   2.0000      -0.188709        -5.1350 
  64   2.0000      -0.177520        -4.8306 
  65   2.0000      -0.163296        -4.4435 
  66   2.0000      -0.162402        -4.4192 
  67   2.0000      -0.161172        -4.3857 
  68   2.0000      -0.161045        -4.3823 
  69   2.0000      -0.154894        -4.2149 
  70   0.0000      -0.072533        -1.9737 
  71   0.0000      -0.062872        -1.7108 
  72   0.0000      -0.047640        -1.2964 
  73   0.0000      -0.025697        -0.6992 
  74   0.0000      -0.012730        -0.3464 
  75   0.0000       0.001424         0.0387 
  76   0.0000       0.013057         0.3553 
  77   0.0000       0.023149         0.6299 
  78   0.0000       0.033637         0.9153 
  79   0.0000       0.042756         1.1635 
  80   0.0000       0.065347         1.7782 
  81   0.0000       0.069910         1.9024 
  82   0.0000       0.073809         2.0084 
  83   0.0000       0.078414         2.1337 
  84   0.0000       0.086618         2.3570 
  85   0.0000       0.093233         2.5370 
  86   0.0000       0.100387         2.7317 
  87   0.0000       0.103216         2.8086 
  88   0.0000       0.106769         2.9053 
  89   0.0000       0.110105         2.9961 
  90   0.0000       0.124495         3.3877 
  91   0.0000       0.136433         3.7125 
  92   0.0000       0.142884         3.8881 
  93   0.0000       0.148821         4.0496 
  94   0.0000       0.154317         4.1992 
  95   0.0000       0.162567         4.4237 
  96   0.0000       0.167244         4.5509 
  97   0.0000       0.176062         4.7909 
  98   0.0000       0.182651         4.9702 
  99   0.0000       0.188927         5.1410 
 100   0.0000       0.191281         5.2050 
 101   0.0000       0.202474         5.5096 
 102   0.0000       0.216876         5.9015 
 103   0.0000       0.229035         6.2324 
 104   0.0000       0.231426         6.2974 
 105   0.0000       0.240357         6.5404 
 106   0.0000       0.243882         6.6364 
 107   0.0000       0.245754         6.6873 
 108   0.0000       0.249757         6.7962 
 109   0.0000       0.256925         6.9913 
 110   0.0000       0.260063         7.0767 
 111   0.0000       0.262781         7.1506 
 112   0.0000       0.270939         7.3726 
 113   0.0000       0.274726         7.4757 
 114   0.0000       0.279078         7.5941 
 115   0.0000       0.283182         7.7058 
 116   0.0000       0.287751         7.8301 
 117   0.0000       0.301312         8.1991 
 118   0.0000       0.313126         8.5206 
 119   0.0000       0.318077         8.6553 
 120   0.0000       0.323814         8.8114 
 121   0.0000       0.334643         9.1061 
 122   0.0000       0.341135         9.2827 
 123   0.0000       0.350438         9.5359 
 124   0.0000       0.353240         9.6121 
 125   0.0000       0.362578         9.8662 
 126   0.0000       0.365777         9.9533 
 127   0.0000       0.378848        10.3090 
 128   0.0000       0.383232        10.4283 
 129   0.0000       0.391327        10.6486 
 130   0.0000       0.394377        10.7315 
 131   0.0000       0.397207        10.8086 
 132   0.0000       0.404428        11.0050 
 133   0.0000       0.414894        11.2898 
 134   0.0000       0.419113        11.4047 
 135   0.0000       0.422735        11.5032 
 136   0.0000       0.429917        11.6986 
 137   0.0000       0.430370        11.7110 
 138   0.0000       0.448897        12.2151 
 139   0.0000       0.457904        12.4602 
 140   0.0000       0.460702        12.5363 
 141   0.0000       0.467307        12.7161 
 142   0.0000       0.484503        13.1840 
 143   0.0000       0.487478        13.2649 
 144   0.0000       0.494258        13.4494 
 145   0.0000       0.505825        13.7642 
 146   0.0000       0.509974        13.8771 
 147   0.0000       0.520149        14.1540 
 148   0.0000       0.535115        14.5612 
 149   0.0000       0.539373        14.6771 
 150   0.0000       0.545730        14.8501 
 151   0.0000       0.552786        15.0421 
 152   0.0000       0.578270        15.7355 
 153   0.0000       0.584861        15.9149 
 154   0.0000       0.587782        15.9944 
 155   0.0000       0.595546        16.2056 
 156   0.0000       0.603539        16.4231 
 157   0.0000       0.616238        16.7687 
 158   0.0000       0.623469        16.9654 
 159   0.0000       0.632933        17.2230 
 160   0.0000       0.635756        17.2998 
 161   0.0000       0.658925        17.9303 
 162   0.0000       0.670195        18.2369 
 163   0.0000       0.682531        18.5726 
 164   0.0000       0.689209        18.7543 
 165   0.0000       0.698024        18.9942 
 166   0.0000       0.711852        19.3705 
 167   0.0000       0.728744        19.8301 
 168   0.0000       0.740262        20.1435 
 169   0.0000       0.756985        20.5986 
 170   0.0000       0.767663        20.8892 
 171   0.0000       0.781299        21.2602 
 172   0.0000       0.785153        21.3651 
 173   0.0000       0.806739        21.9525 
 174   0.0000       0.813241        22.1294 
 175   0.0000       0.819395        22.2969 
 176   0.0000       0.828437        22.5429 
 177   0.0000       0.840830        22.8802 
 178   0.0000       0.850070        23.1316 
 179   0.0000       0.857511        23.3341 
 180   0.0000       0.871299        23.7092 
 181   0.0000       0.890148        24.2221 
 182   0.0000       0.894085        24.3293 
 183   0.0000       0.895836        24.3769 
 184   0.0000       0.921798        25.0834 
 185   0.0000       0.938081        25.5265 
 186   0.0000       0.949863        25.8471 
 187   0.0000       0.967456        26.3258 
 188   0.0000       0.969517        26.3819 
 189   0.0000       0.989470        26.9249 
 190   0.0000       1.003133        27.2966 
 191   0.0000       1.007247        27.4086 
 192   0.0000       1.015174        27.6243 
 193   0.0000       1.033681        28.1279 
 194   0.0000       1.038320        28.2541 
 195   0.0000       1.049449        28.5570 
 196   0.0000       1.058017        28.7901 
 197   0.0000       1.072302        29.1788 
 198   0.0000       1.088551        29.6210 
 199   0.0000       1.109995        30.2045 
 200   0.0000       1.135867        30.9085 
 201   0.0000       1.141273        31.0556 
 202   0.0000       1.142855        31.0987 
 203   0.0000       1.148176        31.2434 
 204   0.0000       1.160718        31.5847 
 205   0.0000       1.177174        32.0325 
 206   0.0000       1.201903        32.7054 
 207   0.0000       1.209315        32.9071 
 208   0.0000       1.238377        33.6979 
 209   0.0000       1.252381        34.0790 
 210   0.0000       1.263462        34.3806 
 211   0.0000       1.263850        34.3911 
 212   0.0000       1.281326        34.8667 
 213   0.0000       1.284656        34.9573 
 214   0.0000       1.300152        35.3789 
 215   0.0000       1.317398        35.8482 
 216   0.0000       1.345698        36.6183 
 217   0.0000       1.349193        36.7134 
 218   0.0000       1.350712        36.7547 
 219   0.0000       1.380796        37.5734 
 220   0.0000       1.385765        37.7086 
 221   0.0000       1.399760        38.0894 
 222   0.0000       1.419543        38.6277 
 223   0.0000       1.439018        39.1577 
 224   0.0000       1.451725        39.5034 
 225   0.0000       1.476340        40.1733 
 226   0.0000       1.501378        40.8546 
 227   0.0000       1.510199        41.0946 
 228   0.0000       1.524008        41.4704 
 229   0.0000       1.529885        41.6303 
 230   0.0000       1.552449        42.2443 
 231   0.0000       1.557354        42.3778 
 232   0.0000       1.574323        42.8395 
 233   0.0000       1.591613        43.3100 
 234   0.0000       1.602993        43.6197 
 235   0.0000       1.609379        43.7934 
 236   0.0000       1.616486        43.9868 
 237   0.0000       1.642280        44.6887 
 238   0.0000       1.656464        45.0747 
 239   0.0000       1.660136        45.1746 
 240   0.0000       1.671373        45.4804 
 241   0.0000       1.692612        46.0583 
 242   0.0000       1.715768        46.6884 
 243   0.0000       1.720463        46.8162 
 244   0.0000       1.737099        47.2689 
 245   0.0000       1.760597        47.9083 
 246   0.0000       1.776885        48.3515 
 247   0.0000       1.788081        48.6562 
 248   0.0000       1.808930        49.2235 
 249   0.0000       1.813643        49.3517 
 250   0.0000       1.826723        49.7077 
 251   0.0000       1.843480        50.1636 
 252   0.0000       1.846174        50.2369 
 253   0.0000       1.861198        50.6458 
 254   0.0000       1.889923        51.4274 
 255   0.0000       1.892940        51.5095 
 256   0.0000       1.921010        52.2733 
 257   0.0000       1.935528        52.6684 
 258   0.0000       1.960729        53.3541 
 259   0.0000       1.965043        53.4715 
 260   0.0000       1.974362        53.7251 
 261   0.0000       1.996066        54.3157 
 262   0.0000       2.007659        54.6312 
 263   0.0000       2.012594        54.7655 
 264   0.0000       2.031250        55.2731 
 265   0.0000       2.039041        55.4851 
 266   0.0000       2.058346        56.0104 
 267   0.0000       2.061302        56.0909 
 268   0.0000       2.077142        56.5219 
 269   0.0000       2.100177        57.1487 
 270   0.0000       2.104671        57.2710 
 271   0.0000       2.110086        57.4183 
 272   0.0000       2.125374        57.8344 
 273   0.0000       2.157355        58.7046 
 274   0.0000       2.170378        59.0590 
 275   0.0000       2.191277        59.6277 
 276   0.0000       2.210346        60.1466 
 277   0.0000       2.220604        60.4257 
 278   0.0000       2.236187        60.8497 
 279   0.0000       2.247466        61.1567 
 280   0.0000       2.261255        61.5319 
 281   0.0000       2.276866        61.9567 
 282   0.0000       2.278378        61.9978 
 283   0.0000       2.282988        62.1233 
 284   0.0000       2.303298        62.6759 
 285   0.0000       2.322252        63.1917 
 286   0.0000       2.341264        63.7090 
 287   0.0000       2.351679        63.9924 
 288   0.0000       2.353529        64.0428 
 289   0.0000       2.373968        64.5990 
 290   0.0000       2.390351        65.0447 
[...]
      5       0.000512  -0.000014  -0.000031  -0.000007  -0.000005   0.000039
      6      -0.040259   0.001601  -0.000922  -0.000901   0.000194   0.000132
      7      -0.074205   0.003161  -0.004420  -0.001471   0.000038  -0.000091
      8       0.005524  -0.000208   0.000411   0.000080   0.000495  -0.000019
      9      -0.002603   0.000148  -0.003066  -0.001005   0.000122  -0.000160
     10       0.001195   0.000092  -0.001251  -0.001364  -0.000202  -0.000162
     11      -0.000112   0.000162  -0.000253   0.000025  -0.000075  -0.000250
     12      -0.000818   0.000995  -0.000782  -0.000109  -0.000142   0.000041
     13      -0.001979   0.015490   0.000842  -0.000117   0.000217   0.000140
     14       0.000544  -0.001350   0.000394   0.000064  -0.000040  -0.000161
     15       0.002528   0.050133  -0.000906  -0.000264  -0.000759  -0.000347
     16       0.003682   0.077562  -0.001122  -0.000249  -0.000737  -0.001477
     17      -0.000454  -0.008066   0.000086  -0.000085  -0.000236   0.000406
     18       0.000496  -0.001201   0.000244   0.000051  -0.000359  -0.041005
     19       0.000111  -0.001870   0.000048   0.000022  -0.037348  -0.057685
     20       0.000554   0.000195   0.000193  -0.000012  -0.043287   0.039868
     21      -0.000773   0.000897  -0.000286  -0.000340  -0.280278   0.365371
     22       0.000841   0.005040  -0.000153  -0.000132  -0.216473   0.268303
     23      -0.000344  -0.007524   0.000683   0.000417   0.480256  -0.662364
     24      -0.008898   0.000450  -0.002361  -0.000740   0.004462  -0.009431
     25      -0.004509   0.002251  -0.001124  -0.000486  -0.007734  -0.008480
     26      -0.007564   0.003506  -0.004366  -0.000708  -0.007375   0.003659
     27       0.001338   0.013470   0.000077   0.000081   0.287469   0.208059
     28      -0.001034   0.014455  -0.000746  -0.000063   0.736707   0.541521
     29       0.002291   0.001759   0.000137   0.000047   0.122536   0.110055
     30       0.003383  -0.001044  -0.040504  -0.012433   0.000103   0.000145
     31      -0.003107   0.001034   0.072259   0.016780   0.000064   0.000202
     32       0.000584  -0.000076  -0.006555  -0.001812   0.000072   0.000006
     33      -0.000731   0.000105  -0.006824   0.041874  -0.000035  -0.000070
     34      -0.000286   0.000057  -0.015866   0.073101  -0.000008   0.000038
     35      -0.000068  -0.000003  -0.000522   0.003114   0.000010   0.000023
     36       0.000357  -0.000206   0.000122   0.002852  -0.000127   0.000074
     37       0.000856  -0.000211  -0.000440  -0.001629  -0.000008  -0.000018
     38      -0.000115   0.000003  -0.000006   0.000252  -0.000012   0.000008
     39      -0.000295   0.000131  -0.000312  -0.000505   0.000087  -0.000056
     40      -0.000094   0.000017   0.000126   0.000096  -0.000002   0.000002
     41       0.000015   0.000003  -0.000017  -0.000034   0.000005   0.000001
     42      -0.009397  -0.003379  -0.003455   0.003916  -0.002492   0.000252
     43       0.000792  -0.000235  -0.000514   0.000284  -0.000258  -0.000036
     44      -0.000997  -0.000177  -0.000194   0.000102  -0.000107  -0.000009
     45       0.467419  -0.019448   0.022638   0.008268   0.000511   0.000405
     46       0.873517  -0.037607   0.044364   0.016370   0.001072   0.000698
     47      -0.072573   0.003191  -0.003154  -0.001275  -0.000550  -0.000438
     48       0.014708  -0.057518   0.003436   0.002424  -0.000807  -0.000212
     49       0.021944  -0.108536   0.003019   0.002986  -0.001704  -0.000660
     50      -0.007417   0.045919  -0.000964  -0.000803   0.000684  -0.000386
     51       0.000188   0.052715   0.011503   0.000670  -0.000993   0.000775
     52       0.001841  -0.075999  -0.011386  -0.000090   0.000715  -0.000910
     53       0.000763  -0.032263  -0.004246   0.000046   0.000795  -0.000246
     54      -0.017466  -0.382114   0.008109   0.003175   0.004213   0.004518
     55      -0.004904  -0.117233   0.002510   0.001096   0.004451   0.001327
     56      -0.007790  -0.186537   0.004560   0.001792   0.002211   0.001396
     57      -0.011013  -0.218931   0.003499   0.000538  -0.000790   0.004237
     58      -0.038910  -0.799921   0.012111   0.002201   0.009230   0.016951
     59       0.013111   0.281732  -0.003003  -0.000705   0.000497  -0.006084
     60      -0.026831   0.008557   0.478126   0.111368  -0.000088   0.000277
     61       0.044664  -0.015461  -0.839642  -0.188689   0.000072  -0.000555
     62      -0.004628   0.001291   0.076857   0.017683  -0.000103   0.000030
     63       0.003182  -0.000621   0.107032  -0.473819   0.000139  -0.000158
     64       0.006056  -0.001002   0.196563  -0.847339   0.000276  -0.000198
     65       0.000304  -0.000012   0.008107  -0.035197  -0.000024  -0.000171
     66       0.000008  -0.000006   0.000011  -0.000003  -0.000004   0.000001
     67      -0.000010   0.000003  -0.000011  -0.000000   0.000004  -0.000001
     68      -0.000002  -0.000001   0.000003  -0.000000  -0.000001  -0.000000
     69      -0.000002   0.000001  -0.000002  -0.000001   0.000001  -0.000000
     70       0.000002  -0.000001   0.000003  -0.000000  -0.000001   0.000000
     71       0.000001   0.000001  -0.000001  -0.000000   0.000001   0.000000


-----------
IR SPECTRUM
-----------

 Mode   freq       eps      Int      T**2         TX        TY        TZ
       cm**-1   L/(mol*cm) km/mol    a.u.
----------------------------------------------------------------------------
  6:     15.79   0.000969    4.90  0.019156  ( 0.097684 -0.091806 -0.034433)
  7:     29.91   0.000140    0.71  0.001462  ( 0.024015 -0.019179  0.022754)
  8:     49.59   0.001872    9.46  0.011779  ( 0.099595  0.043108 -0.001334)
  9:     77.66   0.000722    3.65  0.002903  ( 0.007609 -0.051035  0.015497)
 10:     99.74   0.002651   13.40  0.008296  ( 0.071141 -0.016164  0.054532)
 11:    131.23   0.000380    1.92  0.000904  ( 0.028723 -0.006758  0.005759)
 12:    147.12   0.000688    3.47  0.001459  ( 0.034302  0.001055  0.016756)
 13:    163.70   0.000140    0.71  0.000266  (-0.008541 -0.009597 -0.010053)
 14:    194.93   0.000399    2.01  0.000638  ( 0.000675  0.023943  0.008019)
 15:    276.07   0.003851   19.46  0.004353  ( 0.045486  0.016694  0.044784)
 16:    279.78   0.003833   19.37  0.004276  (-0.054544  0.028285 -0.022370)
 17:    295.62   0.000760    3.84  0.000803  (-0.016010  0.000916 -0.023358)
 18:    315.47   0.001580    7.98  0.001563  ( 0.035718 -0.005669  0.015959)
 19:    386.10   0.001655    8.36  0.001338  (-0.018040  0.026834 -0.017089)
 20:    400.74   0.014141   71.46  0.011012  ( 0.049201  0.011212  0.092007)
 21:    442.71   0.000678    3.43  0.000478  ( 0.003902  0.013235  0.016961)
 22:    464.16   0.001468    7.42  0.000987  ( 0.013789  0.016633  0.022808)
 23:    494.50   0.005166   26.11  0.003260  ( 0.050301 -0.022284  0.015286)
 24:    540.19   0.001611    8.14  0.000931  (-0.013945 -0.000529 -0.027126)
 25:    590.75   0.004009   20.26  0.002118  (-0.000512  0.000829 -0.046011)
 26:    604.74   0.002244   11.34  0.001158  (-0.024414  0.022536 -0.007337)
 27:    627.46   0.002938   14.85  0.001461  (-0.035289  0.006673  0.013086)
 28:    698.64   0.001959    9.90  0.000875  ( 0.028087  0.008627  0.003408)
 29:    725.19   0.000879    4.44  0.000378  (-0.017286  0.004971 -0.007398)
 30:    779.79   0.002814   14.22  0.001126  (-0.031149  0.011459  0.004963)
 31:    795.35   0.002375   12.00  0.000932  (-0.021454 -0.000886  0.021696)
 32:    823.99   0.000163    0.82  0.000062  (-0.005520 -0.004406  0.003439)
 33:    831.05   0.022937  115.91  0.008613  ( 0.048961 -0.005170  0.078669)
 34:    853.45   0.003015   15.24  0.001103  (-0.017136 -0.000677 -0.028434)
 35:    894.66   0.000606    3.06  0.000211  (-0.006025  0.003404 -0.012782)
 36:    914.94   0.002111   10.67  0.000720  ( 0.021303  0.010695  0.012324)
 37:    946.48   0.000901    4.55  0.000297  (-0.014985 -0.008505  0.000310)
 38:    959.03   0.001762    8.90  0.000573  ( 0.011061 -0.019554 -0.008287)
 39:   1038.60   0.009583   48.43  0.002879  ( 0.028360  0.000758  0.045546)
 40:   1052.44   0.003851   19.46  0.001142  ( 0.026947 -0.006863  0.019203)
 41:   1101.67   0.002577   13.02  0.000730  ( 0.020558  0.017309  0.002771)
 42:   1147.25   0.001227    6.20  0.000334  (-0.003322 -0.017950 -0.000662)
 43:   1166.55   0.003479   17.58  0.000931  (-0.015441  0.024679 -0.009120)
 44:   1203.57   0.002524   12.75  0.000654  ( 0.020038 -0.003020  0.015613)
 45:   1238.50   0.012657   63.96  0.003189  ( 0.040172 -0.034852  0.018991)
 46:   1252.65   0.001246    6.30  0.000310  ( 0.009756 -0.009215  0.011416)
 47:   1265.26   0.011364   57.43  0.002803  ( 0.042477 -0.027196  0.016093)
 48:   1295.16   0.003015   15.24  0.000726  ( 0.021781 -0.010983 -0.011463)
 49:   1327.19   0.036336  183.63  0.008544  (-0.071935  0.057296 -0.009291)
 50:   1331.89   0.038587  195.00  0.009041  (-0.083560  0.033673 -0.030408)
 51:   1364.90   0.032860  166.06  0.007513  ( 0.083721  0.003071  0.022233)
 52:   1401.70   0.025707  129.91  0.005723  ( 0.012768  0.038370  0.063937)
 53:   1423.15   0.001228    6.21  0.000269  (-0.006391 -0.003789  0.014632)
 54:   1441.25   0.003490   17.63  0.000756  ( 0.026424 -0.007022 -0.002830)
 55:   1446.09   0.002599   13.13  0.000561  (-0.010845  0.005052 -0.020437)
 56:   1504.43   0.122531  619.22  0.025417  (-0.145510  0.053254 -0.037517)
 57:   1525.09   0.006583   33.27  0.001347  (-0.028206  0.021605  0.009203)
 58:   1545.22   0.012577   63.56  0.002540  (-0.042072  0.004881  0.027317)
 59:   1575.02   0.015046   76.03  0.002981  ( 0.053016 -0.012999  0.001170)
 60:   1587.07   0.007974   40.30  0.001568  (-0.028313 -0.008497 -0.026344)
 61:   2278.45   0.311458  1573.98  0.042658  ( 0.130540  0.015626  0.159291)
 62:   2893.12   0.300189  1517.03  0.032380  ( 0.176563 -0.030460  0.016657)
 63:   2968.47   0.008025   40.55  0.000844  ( 0.028166  0.006578 -0.002652)
 64:   2997.50   0.014336   72.45  0.001492  (-0.032734  0.003009 -0.020295)
 65:   3025.32   0.003016   15.24  0.000311  ( 0.013670 -0.010193  0.004505)
 66:   3054.37   0.002569   12.98  0.000262  (-0.010231 -0.012531 -0.000884)
 67:   3069.03   0.004140   20.92  0.000421  ( 0.018414  0.007478  0.005095)
 68:   3075.56   0.005180   26.18  0.000526  (-0.018278  0.013680 -0.002085)
 69:   3114.35   0.001549    7.83  0.000155  ( 0.004517  0.011567  0.001007)
 70:   3385.50   0.006086   30.76  0.000561  ( 0.001812  0.012016  0.020331)
 71:   3458.79   0.009814   49.59  0.000885  ( 0.010527  0.020315 -0.019024)

* The epsilon (eps) is given for a Dirac delta lineshape.
** The dipole moment derivative (T) already includes vibrational overlap.

The first frequency considered to be a vibration is 6
The total number of vibrations considered is 66


--------------------------
THERMOCHEMISTRY AT 298.15K
--------------------------

Temperature         ... 298.15 K
Pressure            ... 1.00 atm
Total Mass          ... 280.28 AMU

Throughout the following assumptions are being made:
  (1) The electronic state is orbitally nondegenerate
  (2) There are no thermally accessible electronically excited states
  (3) Hindered rotations indicated by low frequency modes are not
      treated as such but are treated as vibrations and this may
      cause some error
  (4) All equations used are the standard statistical mechanics
      equations for an ideal gas
  (5) All vibrations are strictly harmonic

freq.      15.79  E(vib)   ...       0.57 
freq.      29.91  E(vib)   ...       0.55 
freq.      49.59  E(vib)   ...       0.52 
freq.      77.66  E(vib)   ...       0.49 
freq.      99.74  E(vib)   ...       0.46 
freq.     131.23  E(vib)   ...       0.42 
freq.     147.12  E(vib)   ...       0.41 
freq.     163.70  E(vib)   ...       0.39 
freq.     194.93  E(vib)   ...       0.36 
freq.     276.07  E(vib)   ...       0.28 
freq.     279.78  E(vib)   ...       0.28 
freq.     295.62  E(vib)   ...       0.27 
freq.     315.47  E(vib)   ...       0.25 
freq.     386.10  E(vib)   ...       0.20 
freq.     400.74  E(vib)   ...       0.19 
freq.     442.71  E(vib)   ...       0.17 
freq.     464.16  E(vib)   ...       0.16 
freq.     494.50  E(vib)   ...       0.14 
freq.     540.19  E(vib)   ...       0.12 
freq.     590.75  E(vib)   ...       0.10 
freq.     604.74  E(vib)   ...       0.10 
freq.     627.46  E(vib)   ...       0.09 
freq.     698.64  E(vib)   ...       0.07 
freq.     725.19  E(vib)   ...       0.06 
freq.     779.79  E(vib)   ...       0.05 
freq.     795.35  E(vib)   ...       0.05 
freq.     823.99  E(vib)   ...       0.05 
freq.     831.05  E(vib)   ...       0.04 
freq.     853.45  E(vib)   ...       0.04 
freq.     894.66  E(vib)   ...       0.03 
freq.     914.94  E(vib)   ...       0.03 
freq.     946.48  E(vib)   ...       0.03 
freq.     959.03  E(vib)   ...       0.03 
freq.    1038.60  E(vib)   ...       0.02 
freq.    1052.44  E(vib)   ...       0.02 
freq.    1101.67  E(vib)   ...       0.02 
freq.    1147.25  E(vib)   ...       0.01 
freq.    1166.55  E(vib)   ...       0.01 
freq.    1203.57  E(vib)   ...       0.01 
freq.    1238.50  E(vib)   ...       0.01 
freq.    1252.65  E(vib)   ...       0.01 
freq.    1265.26  E(vib)   ...       0.01 
freq.    1295.16  E(vib)   ...       0.01 
freq.    1327.19  E(vib)   ...       0.01 
freq.    1331.89  E(vib)   ...       0.01 
freq.    1364.90  E(vib)   ...       0.01 
freq.    1401.70  E(vib)   ...       0.00 
freq.    1423.15  E(vib)   ...       0.00 
freq.    1441.25  E(vib)   ...       0.00 
freq.    1446.09  E(vib)   ...       0.00 
freq.    1504.43  E(vib)   ...       0.00 
freq.    1525.09  E(vib)   ...       0.00 
freq.    1545.22  E(vib)   ...       0.00 
freq.    1575.02  E(vib)   ...       0.00 
freq.    1587.07  E(vib)   ...       0.00 
freq.    2278.45  E(vib)   ...       0.00 
freq.    2893.12  E(vib)   ...       0.00 
freq.    2968.47  E(vib)   ...       0.00 
freq.    2997.50  E(vib)   ...       0.00 
freq.    3025.32  E(vib)   ...       0.00 
freq.    3054.37  E(vib)   ...       0.00 
freq.    3069.03  E(vib)   ...       0.00 
freq.    3075.56  E(vib)   ...       0.00 
freq.    3114.35  E(vib)   ...       0.00 
freq.    3385.50  E(vib)   ...       0.00 
freq.    3458.79  E(vib)   ...       0.00 

------------
INNER ENERGY
------------

The inner energy is: U= E(el) + E(ZPE) + E(vib) + E(rot) + E(trans)
    E(el)   - is the total energy from the electronic structure calculation
              = E(kin-el) + E(nuc-el) + E(el-el) + E(nuc-nuc)
    E(ZPE)  - the the zero temperature vibrational energy from the frequency calculation
    E(vib)  - the the finite temperature correction to E(ZPE) due to population
              of excited vibrational states
    E(rot)  - is the rotational thermal energy
    E(trans)- is the translational thermal energy

Summary of contributions to the inner energy U:
Electronic energy                ...  -3796.83768425 Eh
Zero point energy                ...      0.17862120 Eh     112.09 kcal/mol
Thermal vibrational correction   ...      0.01147079 Eh       7.20 kcal/mol
Thermal rotational correction    ...      0.00141627 Eh       0.89 kcal/mol
Thermal translational correction ...      0.00141627 Eh       0.89 kcal/mol
-----------------------------------------------------------------------
Total thermal energy                  -3796.64475972 Eh


Summary of corrections to the electronic energy:
(perhaps to be used in another calculation)
Total thermal correction                  0.01430333 Eh       8.98 kcal/mol
Non-thermal (ZPE) correction              0.17862120 Eh     112.09 kcal/mol
-----------------------------------------------------------------------
Total correction                          0.19292453 Eh     121.06 kcal/mol


--------
ENTHALPY
--------

The enthalpy is H = U + kB*T
                kB is Boltzmann's constant
Total free energy                 ...  -3796.64475972 Eh 
Thermal Enthalpy correction       ...      0.00094421 Eh       0.59 kcal/mol
-----------------------------------------------------------------------
Total Enthalpy                    ...  -3796.64381551 Eh


Note: Only C1 symmetry has been detected, increase convergence thresholds 
      if your molecule has a higher symmetry. Symmetry factor of 1.0 is   
      used for the rotational entropy correction. 
 

Note: Rotational entropy computed according to Herzberg 
Infrared and Raman Spectra, Chapter V,1, Van Nostrand Reinhold, 1945 
Point Group:  C1, Symmetry Number:   1  
Rotational constants in cm-1:     0.046003     0.006154     0.005731 

Vibrational entropy computed according to the QRRHO of S. Grimme
Chem.Eur.J. 2012 18 9955


-------
ENTROPY
-------

The entropy contributions are T*S = T*(S(el)+S(vib)+S(rot)+S(trans))
     S(el)   - electronic entropy
     S(vib)  - vibrational entropy
     S(rot)  - rotational entropy
     S(trans)- translational entropy
The entropies will be listed as multiplied by the temperature to get
units of energy

Electronic entropy                ...      0.00000000 Eh      0.00 kcal/mol
Vibrational entropy               ...      0.02079908 Eh     13.05 kcal/mol
Rotational entropy                ...      0.01580455 Eh      9.92 kcal/mol
Translational entropy             ...      0.02033088 Eh     12.76 kcal/mol
-----------------------------------------------------------------------
Final entropy term                ...      0.05693451 Eh     35.73 kcal/mol

In case the symmetry of your molecule has not been determined correctly
or in case you have a reason to use a different symmetry number we print 
out the resulting rotational entropy values for sn=1,12 :
 --------------------------------------------------------
|  sn= 1 | S(rot)=       0.01580455 Eh      9.92 kcal/mol|
|  sn= 2 | S(rot)=       0.01515009 Eh      9.51 kcal/mol|
|  sn= 3 | S(rot)=       0.01476726 Eh      9.27 kcal/mol|
|  sn= 4 | S(rot)=       0.01449563 Eh      9.10 kcal/mol|
|  sn= 5 | S(rot)=       0.01428495 Eh      8.96 kcal/mol|
|  sn= 6 | S(rot)=       0.01411280 Eh      8.86 kcal/mol|
|  sn= 7 | S(rot)=       0.01396726 Eh      8.76 kcal/mol|
|  sn= 8 | S(rot)=       0.01384118 Eh      8.69 kcal/mol|
|  sn= 9 | S(rot)=       0.01372997 Eh      8.62 kcal/mol|
|  sn=10 | S(rot)=       0.01363049 Eh      8.55 kcal/mol|
|  sn=11 | S(rot)=       0.01354050 Eh      8.50 kcal/mol|
|  sn=12 | S(rot)=       0.01345835 Eh      8.45 kcal/mol|
 --------------------------------------------------------


-------------------
GIBBS FREE ENERGY
-------------------

The Gibbs free energy is G = H - T*S

Total enthalpy                    ...  -3796.64381551 Eh 
Total entropy correction          ...     -0.05693451 Eh    -35.73 kcal/mol
-----------------------------------------------------------------------
Final Gibbs free energy         ...  -3796.70075002 Eh

For completeness - the Gibbs free energy minus the electronic energy
G-E(el)                           ...      0.13693422 Eh     85.93 kcal/mol


No protocol specified

Timings for individual modules:

Sum of individual times         ...     2044.583 sec (=  34.076 min)
GTO integral calculation        ...        6.386 sec (=   0.106 min)   0.3 %
SCF iterations                  ...       71.359 sec (=   1.189 min)   3.5 %
SCF Gradient evaluation         ...       15.178 sec (=   0.253 min)   0.7 %
Geometry relaxation             ...        0.100 sec (=   0.002 min)   0.0 %
Numerical frequency calculation ...     1951.560 sec (=  32.526 min)  95.5 %



                             ****ORCA TERMINATED NORMALLY****
TOTAL RUN TIME: 0 days 2 hours 6 minutes 16 seconds 396 msec
