
                                 *****************
                                 * O   R   C   A *
                                 *****************

                                            #,                                       
                                            ###                                      
                                            ####                                     
                                            #####                                    
                                            ######                                   
                                           ########,                                 
                                     ,,################,,,,,                         
                               ,,#################################,,                 
                          ,,##########################################,,             
                       ,#########################################, ''#####,          
                    ,#############################################,,   '####,        
                  ,##################################################,,,,####,       
                ,###########''''           ''''###############################       
              ,#####''   ,,,,##########,,,,          '''####'''          '####       
            ,##' ,,,,###########################,,,                        '##       
           ' ,,###''''                  '''############,,,                           
         ,,##''                                '''############,,,,        ,,,,,,###''
      ,#''                                            '''#######################'''  
     '                                                          ''''####''''         
             ,#######,   #######,   ,#######,      ##                                
            ,#'     '#,  ##    ##  ,#'     '#,    #''#        ######   ,####,        
            ##       ##  ##   ,#'  ##            #'  '#       #        #'  '#        
            ##       ##  #######   ##           ,######,      #####,   #    #        
            '#,     ,#'  ##    ##  '#,     ,#' ,#      #,         ##   #,  ,#        
             '#######'   ##     ##  '#######'  #'      '#     #####' # '####'        



                  #######################################################
                  #                        -***-                        #
                  #          Department of theory and spectroscopy      #
                  #    Directorship and core code : Frank Neese         #
                  #        Max Planck Institute fuer Kohlenforschung    #
                  #                Kaiser Wilhelm Platz 1               #
                  #                 D-45470 Muelheim/Ruhr               #
                  #                      Germany                        #
                  #                                                     #
                  #                  All rights reserved                #
                  #                        -***-                        #
                  #######################################################


                         Program Version 5.0.2 -  RELEASE  -


 With contributions from (in alphabetic order):
   Daniel Aravena         : Magnetic Suceptibility
   Michael Atanasov       : Ab Initio Ligand Field Theory (pilot matlab implementation)
   Alexander A. Auer      : GIAO ZORA, VPT2 properties, NMR spectrum
   Ute Becker             : Parallelization
   Giovanni Bistoni       : ED, misc. LED, open-shell LED, HFLD
   Martin Brehm           : Molecular dynamics
   Dmytro Bykov           : SCF Hessian
   Vijay G. Chilkuri      : MRCI spin determinant printing, contributions to CSF-ICE
   Dipayan Datta          : RHF DLPNO-CCSD density
   Achintya Kumar Dutta   : EOM-CC, STEOM-CC
   Dmitry Ganyushin       : Spin-Orbit,Spin-Spin,Magnetic field MRCI
   Miquel Garcia          : C-PCM and meta-GGA Hessian, CC/C-PCM, Gaussian charge scheme
   Yang Guo               : DLPNO-NEVPT2, F12-NEVPT2, CIM, IAO-localization
   Andreas Hansen         : Spin unrestricted coupled pair/coupled cluster methods
   Benjamin Helmich-Paris : MC-RPA, TRAH-SCF, COSX integrals
   Lee Huntington         : MR-EOM, pCC
   Robert Izsak           : Overlap fitted RIJCOSX, COSX-SCS-MP3, EOM
   Marcus Kettner         : VPT2
   Christian Kollmar      : KDIIS, OOCD, Brueckner-CCSD(T), CCSD density, CASPT2, CASPT2-K
   Simone Kossmann        : Meta GGA functionals, TD-DFT gradient, OOMP2, MP2 Hessian
   Martin Krupicka        : Initial AUTO-CI
   Lucas Lang             : DCDCAS
   Marvin Lechner         : AUTO-CI (C++ implementation), FIC-MRCC
   Dagmar Lenk            : GEPOL surface, SMD
   Dimitrios Liakos       : Extrapolation schemes; Compound Job, initial MDCI parallelization
   Dimitrios Manganas     : Further ROCIS development; embedding schemes
   Dimitrios Pantazis     : SARC Basis sets
   Anastasios Papadopoulos: AUTO-CI, single reference methods and gradients
   Taras Petrenko         : DFT Hessian,TD-DFT gradient, ASA, ECA, R-Raman, ABS, FL, XAS/XES, NRVS
   Peter Pinski           : DLPNO-MP2, DLPNO-MP2 Gradient
   Christoph Reimann      : Effective Core Potentials
   Marius Retegan         : Local ZFS, SOC
   Christoph Riplinger    : Optimizer, TS searches, QM/MM, DLPNO-CCSD(T), (RO)-DLPNO pert. Triples
   Tobias Risthaus        : Range-separated hybrids, TD-DFT gradient, RPA, STAB
   Michael Roemelt        : Original ROCIS implementation
   Masaaki Saitow         : Open-shell DLPNO-CCSD energy and density
   Barbara Sandhoefer     : DKH picture change effects
   Avijit Sen             : IP-ROCIS
   Kantharuban Sivalingam : CASSCF convergence, NEVPT2, FIC-MRCI
   Bernardo de Souza      : ESD, SOC TD-DFT
   Georgi Stoychev        : AutoAux, RI-MP2 NMR, DLPNO-MP2 response
   Willem Van den Heuvel  : Paramagnetic NMR
   Boris Wezisla          : Elementary symmetry handling
   Frank Wennmohs         : Technical directorship


 We gratefully acknowledge several colleagues who have allowed us to
 interface, adapt or use parts of their codes:
   Stefan Grimme, W. Hujo, H. Kruse, P. Pracht,  : VdW corrections, initial TS optimization,
                  C. Bannwarth, S. Ehlert          DFT functionals, gCP, sTDA/sTD-DF
   Ed Valeev, F. Pavosevic, A. Kumar             : LibInt (2-el integral package), F12 methods
   Garnet Chan, S. Sharma, J. Yang, R. Olivares  : DMRG
   Ulf Ekstrom                                   : XCFun DFT Library
   Mihaly Kallay                                 : mrcc  (arbitrary order and MRCC methods)
   Jiri Pittner, Ondrej Demel                    : Mk-CCSD
   Frank Weinhold                                : gennbo (NPA and NBO analysis)
   Christopher J. Cramer and Donald G. Truhlar   : smd solvation model
   Lars Goerigk                                  : TD-DFT with DH, B97 family of functionals
   V. Asgeirsson, H. Jonsson                     : NEB implementation
   FAccTs GmbH                                   : IRC, NEB, NEB-TS, DLPNO-Multilevel, CI-OPT
                                                   MM, QMMM, 2- and 3-layer-ONIOM, Crystal-QMMM,
                                                   LR-CPCM, SF, NACMEs, symmetry and pop. for TD-DFT,
                                                   nearIR, NL-DFT gradient (VV10), updates on ESD,
                                                   ML-optimized integration grids
   S Lehtola, MJT Oliveira, MAL Marques          : LibXC Library
   Liviu Ungur et al                             : ANISO software


 Your calculation uses the libint2 library for the computation of 2-el integrals
 For citations please refer to: http://libint.valeyev.net

 Your ORCA version has been built with support for libXC version: 5.1.0
 For citations please refer to: https://tddft.org/programs/libxc/

 This ORCA versions uses:
   CBLAS   interface :  Fast vector & matrix operations
   LAPACKE interface :  Fast linear algebra routines
   SCALAPACK package :  Parallel linear algebra routines
   Shared memory     :  Shared parallel matrices
   BLAS/LAPACK       :  OpenBLAS 0.3.15  USE64BITINT DYNAMIC_ARCH NO_AFFINITY Haswell SINGLE_THREADED
        Core in use  :  Haswell
   Copyright (c) 2011-2014, The OpenBLAS Project


Your calculation utilizes the atom-pairwise dispersion correction
with the Becke-Johnson damping scheme (D3BJ)
Cite in your paper:
S.Grimme, S.Ehrlich, L.Goerigk, J Comput Chem, (2011), 32, 1456–1465 
S.Grimme, J.Antony, S.Ehrlich and H.Krieg, J.Chem.Phys., 132, (2010), 154104 
   

================================================================================

----- Orbital basis set information -----
Your calculation utilizes the basis: def2-TZVP
   F. Weigend and R. Ahlrichs, Phys. Chem. Chem. Phys. 7, 3297 (2005).

----- AuxJ basis set information -----
Your calculation utilizes the auxiliary basis: def2/J
   F. Weigend, Phys. Chem. Chem. Phys. 8, 1057 (2006).

================================================================================
                                        WARNINGS
                       Please study these warnings very carefully!
================================================================================


WARNING: The environment variable RSH_COMMAND is not set!
  ===> : All Displacements for the Numerical Hessian or Gradient calculation
         will be started on localhost

INFO   : the flag for use of the SHARK integral package has been found!

Your calculation utilizes the atom-pairwise dispersion correction
with the Becke-Johnson damping scheme (D3BJ)
Cite in your paper:
S.Grimme, S.Ehrlich, L.Goerigk, J Comput Chem, (2011), 32, 1456–1465 
S.Grimme, J.Antony, S.Ehrlich and H.Krieg, J.Chem.Phys., 132, (2010), 154104 
   

================================================================================

----- Orbital basis set information -----
Your calculation utilizes the basis: def2-TZVP
   F. Weigend and R. Ahlrichs, Phys. Chem. Chem. Phys. 7, 3297 (2005).

----- AuxJ basis set information -----
Your calculation utilizes the auxiliary basis: def2/J
   F. Weigend, Phys. Chem. Chem. Phys. 8, 1057 (2006).

================================================================================
                                        WARNINGS
                       Please study these warnings very carefully!
================================================================================


WARNING: MOInp is set but Guess=PModel. MOInp will be ignored!
         To read the initial guess from a file you must also specify
         'MORead' in the simple input or 'Guess MORead' in the %scf block


WARNING: The environment variable RSH_COMMAND is not set!
  ===> : All Displacements for the Numerical Hessian or Gradient calculation
         will be started on localhost

INFO   : the flag for use of the SHARK integral package has been found!

Your calculation utilizes the atom-pairwise dispersion correction
with the Becke-Johnson damping scheme (D3BJ)
Cite in your paper:
S.Grimme, S.Ehrlich, L.Goerigk, J Comput Chem, (2011), 32, 1456–1465 
S.Grimme, J.Antony, S.Ehrlich and H.Krieg, J.Chem.Phys., 132, (2010), 154104 
   

================================================================================

----- Orbital basis set information -----
Your calculation utilizes the basis: def2-TZVP
   F. Weigend and R. Ahlrichs, Phys. Chem. Chem. Phys. 7, 3297 (2005).

----- AuxJ basis set information -----
Your calculation utilizes the auxiliary basis: def2/J
   F. Weigend, Phys. Chem. Chem. Phys. 8, 1057 (2006).

================================================================================
                                        WARNINGS
                       Please study these warnings very carefully!
================================================================================


WARNING: MOInp is set but Guess=PModel. MOInp will be ignored!
         To read the initial guess from a file you must also specify
         'MORead' in the simple input or 'Guess MORead' in the %scf block


WARNING: The environment variable RSH_COMMAND is not set!
  ===> : All Displacements for the Numerical Hessian or Gradient calculation
         will be started on localhost

INFO   : the flag for use of the SHARK integral package has been found!

Your calculation utilizes the atom-pairwise dispersion correction
with the Becke-Johnson damping scheme (D3BJ)
Cite in your paper:
S.Grimme, S.Ehrlich, L.Goerigk, J Comput Chem, (2011), 32, 1456–1465 
S.Grimme, J.Antony, S.Ehrlich and H.Krieg, J.Chem.Phys., 132, (2010), 154104 
   

================================================================================

----- Orbital basis set information -----
Your calculation utilizes the basis: def2-TZVP
   F. Weigend and R. Ahlrichs, Phys. Chem. Chem. Phys. 7, 3297 (2005).

----- AuxJ basis set information -----
Your calculation utilizes the auxiliary basis: def2/J
   F. Weigend, Phys. Chem. Chem. Phys. 8, 1057 (2006).

================================================================================
                                        WARNINGS
                       Please study these warnings very carefully!
================================================================================


WARNING: MOInp is set but Guess=PModel. MOInp will be ignored!
         To read the initial guess from a file you must also specify
         'MORead' in the simple input or 'Guess MORead' in the %scf block


WARNING: The environment variable RSH_COMMAND is not set!
  ===> : All Displacements for the Numerical Hessian or Gradient calculation
         will be started on localhost

INFO   : the flag for use of the SHARK integral package has been found!

Your calculation utilizes the atom-pairwise dispersion correction
with the Becke-Johnson damping scheme (D3BJ)
Cite in your paper:
S.Grimme, S.Ehrlich, L.Goerigk, J Comput Chem, (2011), 32, 1456–1465 
S.Grimme, J.Antony, S.Ehrlich and H.Krieg, J.Chem.Phys., 132, (2010), 154104 
   

================================================================================

----- Orbital basis set information -----
Your calculation utilizes the basis: def2-TZVP
   F. Weigend and R. Ahlrichs, Phys. Chem. Chem. Phys. 7, 3297 (2005).

----- AuxJ basis set information -----
Your calculation utilizes the auxiliary basis: def2/J
   F. Weigend, Phys. Chem. Chem. Phys. 8, 1057 (2006).

================================================================================
                                        WARNINGS
                       Please study these warnings very carefully!
================================================================================


WARNING: MOInp is set but Guess=PModel. MOInp will be ignored!
         To read the initial guess from a file you must also specify
         'MORead' in the simple input or 'Guess MORead' in the %scf block


WARNING: The environment variable RSH_COMMAND is not set!
  ===> : All Displacements for the Numerical Hessian or Gradient calculation
         will be started on localhost

INFO   : the flag for use of the SHARK integral package has been found!

================================================================================
                                       INPUT FILE
================================================================================
NAME = ex.inp
|  1> ! PBE D3 def2-TZVP opt numfreq PModel NOAUTOSTART cpcm(water)
|  2> %pal nprocs=16 end
|  3> %geom maxiter=150 end
|  4> %base "neutral"
|  5> *xyz 0 1
|  6>   C   -0.50330888339685     -0.36622989460744     -1.50264592604726
|  7>   C   -2.08220337085055      1.45481402304829     -0.06812263994748
|  8>   C   -1.80478312739886     -0.08127567823641     -1.93219256435024
|  9>   C   0.02771387494132      0.22243073067180     -0.34928021631862
| 10>   C   -0.77081250790830      1.14451288174966      0.36906287978685
| 11>   C   -2.60086274180758      0.81754881455444     -1.20534491481846
| 12>   O   -3.93000293075932      1.01004866621818     -1.53116279257847
| 13>   O   -2.40206796189385     -0.65842136101786     -3.01421913203989
| 14>   C   1.39387267229053     -0.15067008683338      0.15253581285128
| 15>   C   1.35957540527774     -1.13904336061899      1.34403917491920
| 16>   N   0.77234944595458     -2.45369470517789      1.08553039173842
| 17>   H   0.09314121133948     -1.08362183538547     -2.07199435092125
| 18>   H   -2.67720481474820      2.22213236791043      0.42873932225945
| 19>   H   -0.34034363863357      1.69933963761379      1.20501627535282
| 20>   H   -4.10839916128766      0.55201363817625     -2.38002371417251
| 21>   H   -1.79311763517766     -1.29466335518302     -3.43516189242892
| 22>   H   1.93039616252341      0.75523251442089      0.47940332055347
| 23>   H   1.97851299265438     -0.60359592094812     -0.66355968776678
| 24>   H   2.39499678024301     -1.27387444688959      1.69691129350418
| 25>   H   0.79251637060131     -0.67960489909142      2.17095326918672
| 26>   H   1.14109143115258     -2.84013479588932      0.21153854652907
| 27>   H   -0.24664063115729     -2.36030645719540      0.96245736474229
| 28>   Cu  -3.00025521761018     -2.44988420026147      0.59294000534601
| 29>   Cu  -5.29255333398898     -2.53787684776617      1.43305228355980
| 30>   Cu  -3.61342327413388     -4.18379486559173      2.16449734402685
| 31>   Cu  -2.42318030050520     -2.14595805255506      2.92301911427386
| 32>   Cu  -4.55784937849428     -0.61968620123656      0.12569397684079
| 33>   Cu  -2.15515865024177     -0.26306947668903      1.36468277622633
| 34>   Cu  -4.26967157164219     -0.64060532593970      2.54896875502006
| 35>   Cu  -4.68115374634185     -2.67287125524958      3.81450566467241
| 36> *
| 37> 
| 38> 
| 39> $new_job
| 40> 
| 41> ! PBE D3 def2-TZVP opt numfreq PModel NOAUTOSTART cpcm(water)
| 42> %pal nprocs=16 end
| 43> %geom maxiter=150 end
| 44> %base "protonated"
| 45> *xyz 1 1
| 46>   C   -1.97220441321260     -1.31120570725444      0.74032310827642
| 47>   C   -0.67397615987391      1.16304160530379      1.04840877997570
| 48>   C   -2.55454423875750     -0.32090781106778      1.55203628854540
| 49>   C   -0.70158965696686     -1.09307066773160      0.15275754447226
| 50>   C   -0.03272447369643      0.13326040298857      0.31265038670954
| 51>   C   -1.90144878278867      0.92126693635707      1.70404987076505
| 52>   O   -3.73602061611575     -0.56912342918582      2.16713095116780
| 53>   O   -2.52433627881176      1.81538101445881      2.51572843919968
| 54>   C   1.36692312647140      0.33099272365631     -0.21882200376586
| 55>   C   1.48072528154250      1.03053224642724     -1.57062177613114
| 56>   N   0.88138299380964      0.21518234931327     -2.67361083490760
| 57>   H   -0.17219016403443      0.20463381553439     -2.59748096732028
| 58>   H   1.10182592642076      0.61801651653242     -3.59406112037779
| 59>   H   1.21924247391135     -0.75722021121362     -2.66435432237824
| 60>   H   -2.44021954653629     -2.29755817778567      0.70291854753858
| 61>   H   -0.13003122894934      2.08460002015802      1.28261864110343
| 62>   H   -0.20753178842755     -1.91590676553676     -0.36666147402638
| 63>   H   -4.01410821698268      0.23840907542751      2.64663932434709
| 64>   H   -2.02143484970320      2.65206530161477      2.54967206018690
| 65>   H   1.87054023625176     -0.64632451044744     -0.28043643075765
| 66>   H   1.94300848121579      0.94147880626622      0.49212335695785
| 67>   H   0.94951307535143      1.99333559956136     -1.57662318249208
| 68>   H   2.53325145430755      1.19837654526213     -1.82731095942783
| 69>   Cu  -3.31459288810556      3.11906781575107     -2.33220300511889
| 70>   Cu  -2.18672884272025      1.11265918987297     -3.00629494031618
| 71>   Cu  -1.78450562033125      1.93541257255832     -0.74947577524553
| 72>   Cu  -4.13894292400778      1.26571068530770     -0.99559061303269
| 73>   Cu  -3.84060866847112      1.96028525724995     -4.50990769187330
| 74>   Cu  -5.54905581266511      2.07508655278528     -2.75730162128762
| 75>   Cu  -4.28079271188338     -0.04774973445260     -3.03394274964025
| 76>   Cu  -2.55282756324043     -0.59548487571163     -1.30905238814621 
| 77> *
| 78> 
| 79> 
| 80> $new_job
| 81> 
| 82> ! PBE D3 def2-TZVP opt numfreq PModel NOAUTOSTART cpcm(water)
| 83> %pal nprocs=16 end
| 84> %geom maxiter=150 end
| 85> %base "deprotonated"
| 86> *xyz -1 1
| 87>   O   3.11174070127461     -0.74512211692160      0.19164228672741
| 88>   O   3.46096605384020      1.95088288771178     -0.76444809675975
| 89>   N   -3.74551041412432     -1.19919783609113     -0.18753068482735
| 90>   C   -1.69831254335940      0.01006704090060      0.72952743546964
| 91>   C   -0.32940715112606      0.53484910720576      0.37864257224324
| 92>   C   -2.40387850980546     -0.66652305633904     -0.46294327772074
| 93>   C   0.80137200065251     -0.29598363820847      0.44749609511843
| 94>   C   -0.14258741066237      1.84335802311049     -0.08661755591140
| 95>   C   2.07155789131901      0.14513749386897      0.07234213112170
| 96>   C   1.12360169667964      2.29680502693582     -0.46692406014038
| 97>   C   2.27590483645565      1.47851203581250     -0.40788623465802
| 98>   H   -2.33795810038276      0.83499823937472      1.08632797864620
| 99>   H   -1.62855072568327     -0.72422108099774      1.55016032070355
|100>   H   -1.77273616948223     -1.49235751995061     -0.83006602336525
|101>   H   -2.48350656874187      0.05943565726744     -1.28874768348394
|102>   H   0.70346519756935     -1.32359491610839      0.81089872299763
|103>   H   -0.99919167700051      2.52054257916124     -0.15087040298955
|104>   H   1.25663657272168      3.32251471933703     -0.82184053374853
|105>   H   -4.33776812520380     -0.44038913126633      0.16369003552812
|106>   H   -3.68462868624204     -1.87010487181190      0.58459637323787
|107>   H   3.96800500042919     -0.30610929174625     -0.08015133970397
|108>   Cu  5.19730745206526      1.15921913012777     -1.13554030745047
|109>   Cu  6.51582087990282     -0.95356285320093     -0.87074930191740
|110>   Cu  5.87496620764357     -0.33287830801256     -3.07652606401113
|111>   Cu  7.46461387503382      1.15414774025198     -2.12693664183398
|112>   Cu  6.32381462673372      0.41154915401691      1.04202459576269
|113>   Cu  7.23153283560436      2.38530826880656     -0.13269778869411
|114>   Cu  8.51794147829976      0.23440203709149     -0.13355189199597
|115>   Cu  8.50446231758876     -1.01348481932616     -2.24635310934454
|116> *
|117> 
|118> $new_job
|119> 
|120> ! PBE D3 def2-TZVP opt numfreq PModel NOAUTOSTART cpcm(water)
|121> %pal nprocs=16 end
|122> %geom maxiter=150 end
|123> %base "2x_deprotonated"
|124> *xyz -2 1
|125>   O   3.04252167807346     -0.60100765100403      1.34794418959035
|126>   O   3.40061837222438      2.27711853768435      1.11597858456970
|127>   N   -3.69485469552169     -1.03447248568005      0.14264579205821
|128>   C   -1.40771485957149     -0.25256366155450     -0.66952912074105
|129>   C   -0.11551014771213      0.40506159504458     -0.25107893640276
|130>   C   -2.41115138528403     -0.40558960067887      0.49009084248675
|131>   C   0.91915418470979     -0.34526922640920      0.33436992060231
|132>   C   0.07476823785298      1.78583268599242     -0.37669386990762
|133>   C   2.13351027570644      0.20830426336887      0.79559941140521
|134>   C   1.26484148408182      2.37542301660213      0.07234076034527
|135>   C   2.31623971540264      1.64447785944520      0.66628194419705
|136>   H   -1.88986430414712      0.34044275915463     -1.46557814658166
|137>   H   -1.21239658234746     -1.25561574329811     -1.08736029678475
|138>   H   -2.61885656411960      0.58989650772907      0.91585486834038
|139>   H   -1.94361870946845     -0.99970694005560      1.29232857074677
|140>   H   0.80285133102435     -1.42986478204164      0.44102321643562
|141>   H   -0.70399724498264      2.40544569521174     -0.83147906530591
|142>   H   1.41148066893320      3.45575695822920     -0.02761800003850
|143>   H   -3.51030887056985     -1.95811257631446     -0.26109549501020
|144>   H   -4.13114806861177     -0.49696285015681     -0.61297797594341
|145>   Cu  5.28040001900637      2.11977990468594      0.61588589763920
|146>   Cu  6.84442314482871      0.89803001715146      2.13746412618370
|147>   Cu  4.92590846906660     -0.31217655348456      1.32646675074395
|148>   Cu  6.55161134608818      0.23748959436844     -0.38577273707687
|149>   Cu  7.58990333935712      2.99008551576189      1.41158459915164
|150>   Cu  7.28013324243651      2.39273016658559     -0.92119630170154
|151>   Cu  8.72700153036345      0.91681979545182      0.53945280398708
|152>   Cu  7.50115836218004     -1.19592048078955      1.24409373201107
|153> *
|154> 
|155> $new_job
|156> 
|157> ! PBE D3 def2-TZVP opt numfreq PModel NOAUTOSTART cpcm(water)
|158> %pal nprocs=16 end
|159> %geom maxiter=150 end
|160> %base "zwitterione"
|161> *xyz 0 1
|162>   O   3.57504252884633     -1.09260703725889      0.88562656323491
|163>   C   2.62658920254499     -0.33693333481921      0.24760324613052
|164>   C   1.33930000059173     -0.86231746098964      0.15428229806165
|165>   C   0.29781200007463     -0.16529068429121     -0.48292576081996
|166>   C   -1.10032317548334     -0.73450960510712     -0.51422995433639
|167>   C   -1.83497487397462     -0.53955667356452      0.81174933659681
|168>   N   -1.91833356455485      0.92440162137791      1.13901637364945
|169>   H   -2.24974877898832      1.08751317456119      2.09828000411261
|170>   H   -0.98423345505479      1.35656360183470      1.03541541141395
|171>   H   -2.55548373199698      1.41563412499466      0.49686956254106
|172>   C   0.58760825248126      1.09399889172577     -1.02518201296071
|173>   C   1.87542369167732      1.63200477633998     -0.93532582734841
|174>   C   2.94087565595028      0.95205408040268     -0.30171687448318
|175>   O   4.14179949766916      1.49415091288356     -0.22189329358269
|176>   H   4.45678689924197     -0.61966756383682      0.86873014165492
|177>   H   1.15285623068247     -1.84752743860226      0.59188109315713
|178>   H   -1.68461267164760     -0.26669002045962     -1.32248937042811
|179>   H   -1.08438708033445     -1.81728240559020     -0.71089197793702
|180>   H   -2.86203398383191     -0.92249730325262      0.78285001705866
|181>   H   -1.29280302083413     -1.01211462422154      1.63979228124072
|182>   H   -0.19832571325489      1.65629171532644     -1.53742869299979
|183>   H   2.09220822900250      2.61260454232676     -1.36659212153272
|184>   Cu  5.93846383649302      0.79388516901424      0.08403415212838
|185>   Cu  7.18087080735988     -1.21662271339167      0.88576874948072
|186>   Cu  7.29747568574532     -0.71723441562726     -1.44036419443848
|187>   Cu  8.40445871406609      0.90431841041682     -0.10680814481733
|188>   Cu  6.31176462600125      0.20616609673883      2.55522323335169
|189>   Cu  7.45868131065272      2.18676184158608      1.63311288538395
|190>   Cu  8.77533449063380      0.11481339061490      2.16434922087464
|191>   Cu  9.51014508324092     -1.21092417113198      0.23039880861300
|192> *
|193> 
|194>                          ****END OF INPUT****
================================================================================


                 $$$$$$$$$$$$$$$$$$$$$$$$$$$$$$$$$$$$$$$$$$$$$$ 
                 $ THERE ARE  5 JOBS TO BE PROCESSED THIS RUN $
                 $$$$$$$$$$$$$$$$$$$$$$$$$$$$$$$$$$$$$$$$$$$$$$ 




                 $$$$$$$$$$$$$$$$  JOB NUMBER  1 $$$$$$$$$$$$$$


                       *****************************
                       * Geometry Optimization Run *
                       *****************************

Geometry optimization settings:
Update method            Update   .... BFGS
Choice of coordinates    CoordSys .... Z-matrix Internals
Initial Hessian          InHess   .... Almoef's Model

Convergence Tolerances:
Energy Change            TolE     ....  5.0000e-06 Eh
Max. Gradient            TolMAXG  ....  3.0000e-04 Eh/bohr
RMS Gradient             TolRMSG  ....  1.0000e-04 Eh/bohr
Max. Displacement        TolMAXD  ....  4.0000e-03 bohr
RMS Displacement         TolRMSD  ....  2.0000e-03 bohr
Strict Convergence                ....  False
------------------------------------------------------------------------------
                        ORCA OPTIMIZATION COORDINATE SETUP
------------------------------------------------------------------------------

The optimization will be done in new redundant internal coordinates
Making redundant internal coordinates   ...  (new redundants) done
Evaluating the initial hessian          ...  (Almloef) done
Evaluating the coordinates              ...  done
Calculating the B-matrix                .... done
Calculating the G-matrix                .... done
Diagonalizing the G-matrix              .... done
Small eigenvalue found = 1.330e-02
The first mode is                       ....  725
The number of degrees of freedom        ....   84

    -----------------------------------------------------------------
                    Redundant Internal Coordinates


    -----------------------------------------------------------------
         Definition                    Initial Value    Approx d2E/dq
    -----------------------------------------------------------------
      1. B(C   2,C   0)                  1.3998         0.602620   
      2. B(C   3,C   0)                  1.3996         0.603242   
      3. B(C   4,C   1)                  1.4167         0.566331   
      4. B(C   4,C   3)                  1.4156         0.568736   
      5. B(C   5,C   1)                  1.4030         0.595675   
      6. B(C   5,C   2)                  1.4035         0.594470   
      7. B(O   6,C   5)                  1.3820         0.576361   
      8. B(O   7,C   2)                  1.3640         0.615573   
      9. B(C   8,C   3)                  1.5025         0.413334   
     10. B(C   9,C   8)                  1.5485         0.349077   
     11. B(N  10,C   9)                  1.4629         0.428180   
     12. B(H  11,C   0)                  1.0930         0.356206   
     13. B(H  12,C   1)                  1.0907         0.359145   
     14. B(H  13,C   4)                  1.0918         0.357771   
     15. B(H  14,O   6)                  0.9809         0.481509   
     16. B(H  15,O   7)                  0.9761         0.490053   
     17. B(H  16,C   8)                  1.1024         0.344022   
     18. B(H  17,C   8)                  1.1013         0.345402   
     19. B(H  18,C   9)                  1.1022         0.344346   
     20. B(H  19,C   9)                  1.1029         0.343411   
     21. B(H  20,N  10)                  1.0243         0.410580   
     22. B(H  21,N  10)                  1.0306         0.401118   
     23. B(Cu 23,Cu 22)                  2.4430         1.336664   
     24. B(Cu 24,Cu 23)                  2.4624         1.244523   
     25. B(Cu 24,Cu 22)                  2.4191         1.459046   
     26. B(Cu 25,Cu 24)                  2.4789         1.171549   
     27. B(Cu 25,Cu 23)                  3.2568         0.067234   
     28. B(Cu 25,Cu 22)                  2.4196         1.456344   
     29. B(Cu 26,Cu 22)                  2.4483         1.310932   
     30. B(Cu 26,O   6)                  2.4074         0.134853   
     31. B(Cu 26,C   5)                  2.7690         0.039887   
     32. B(Cu 26,Cu 23)                  2.4348         1.377265   
     33. B(Cu 27,Cu 26)                  2.7268         0.471282   
     34. B(Cu 27,Cu 25)                  2.4588         1.261376   
     35. B(Cu 27,Cu 22)                  2.4682         1.218467   
     36. B(Cu 27,C   4)                  2.2111         0.309636   
     37. B(Cu 27,C   3)                  2.8175         0.033372   
     38. B(Cu 27,C   1)                  2.2382         0.280332   
     39. B(Cu 28,Cu 27)                  2.4528         1.289310   
     40. B(Cu 28,Cu 26)                  2.4404         1.349208   
     41. B(Cu 28,Cu 25)                  2.4115         1.500322   
     42. B(Cu 28,Cu 24)                  3.6239         0.017456   
     43. B(Cu 28,Cu 23)                  2.4272         1.416563   
     44. B(Cu 28,Cu 22)                  2.9514         0.206453   
     45. B(Cu 29,Cu 28)                  2.4292         1.406090   
     46. B(Cu 29,Cu 25)                  2.4841         1.149203   
     47. B(Cu 29,Cu 24)                  2.4790         1.170982   
     48. B(Cu 29,Cu 23)                  2.4624         1.244692   
     49. A(C   3,C   0,H  11)          119.8880         0.350633   
     50. A(C   2,C   0,H  11)          118.7598         0.350572   
     51. A(C   2,C   0,C   3)          121.3335         0.429733   
     52. A(C   4,C   1,H  12)          121.2288         0.347400   
     53. A(C   5,C   1,H  12)          119.1513         0.350372   
     54. A(C   5,C   1,Cu 27)           99.1036         0.418989   
     55. A(C   4,C   1,C   5)          119.5271         0.424018   
     56. A(C   4,C   1,Cu 27)           70.3980         0.415237   
     57. A(H  12,C   1,Cu 27)          103.3301         0.343522   
     58. A(C   0,C   2,O   7)          124.3599         0.428480   
     59. A(C   0,C   2,C   5)          119.9199         0.428605   
     60. A(C   5,C   2,O   7)          115.6832         0.427436   
     61. A(C   4,C   3,C   8)          120.3436         0.397719   
     62. A(C   4,C   3,Cu 27)           50.6920         0.290719   
     63. A(C   0,C   3,C   8)          121.0506         0.401862   
     64. A(C   0,C   3,C   4)          118.5633         0.425299   
     65. A(C   0,C   3,Cu 27)           97.7518         0.293427   
     66. A(C   8,C   3,Cu 27)          117.2902         0.276661   
     67. A(H  13,C   4,Cu 27)          103.0379         0.349088   
     68. A(C   1,C   4,H  13)          119.3366         0.347176   
     69. A(C   3,C   4,H  13)          119.8122         0.347424   
     70. A(C   1,C   4,C   3)          120.5455         0.420527   
     71. A(C   3,C   4,Cu 27)           99.6137         0.422982   
     72. A(C   1,C   4,Cu 27)           72.4733         0.422662   
     73. A(C   1,C   5,O   6)          118.9066         0.422584   
     74. A(C   2,C   5,Cu 26)          108.5062         0.301143   
     75. A(O   6,C   5,Cu 26)           60.3888         0.297929   
     76. A(C   1,C   5,Cu 26)           96.1653         0.301240   
     77. A(C   1,C   5,C   2)          120.0639         0.427715   
     78. A(C   2,C   5,O   6)          120.8386         0.422431   
     79. A(C   5,O   6,Cu 26)           89.6717         0.362652   
     80. A(C   5,O   6,H  14)          108.2943         0.360744   
     81. A(H  14,O   6,Cu 26)          103.4177         0.315455   
     82. A(C   2,O   7,H  15)          110.1634         0.365923   
     83. A(C   9,C   8,H  17)          108.6291         0.318558   
     84. A(C   9,C   8,H  16)          107.8868         0.318350   
     85. A(C   3,C   8,H  16)          109.7241         0.327291   
     86. A(C   3,C   8,H  17)          109.7134         0.327507   
     87. A(C   3,C   8,C   9)          113.2887         0.365428   
     88. A(H  16,C   8,H  17)          107.4151         0.286888   
     89. A(C   8,C   9,H  19)          108.8088         0.318258   
     90. A(C   8,C   9,N  10)          116.5218         0.365352   
     91. A(N  10,C   9,H  19)          107.4855         0.327130   
     92. A(N  10,C   9,H  18)          108.8898         0.327276   
     93. A(C   8,C   9,H  18)          107.6758         0.318399   
     94. A(H  18,C   9,H  19)          107.0930         0.286671   
     95. A(H  20,N  10,H  21)          106.7516         0.297125   
     96. A(C   9,N  10,H  21)          109.6673         0.332776   
     97. A(C   9,N  10,H  20)          110.2017         0.334066   
     98. A(Cu 24,Cu 22,Cu 26)          119.9027         0.908831   
     99. A(Cu 25,Cu 22,Cu 26)          103.9820         0.908487   
    100. A(Cu 23,Cu 22,Cu 26)           59.7082         0.892735   
    101. A(Cu 26,Cu 22,Cu 28)           52.7418         0.615633   
    102. A(Cu 25,Cu 22,Cu 28)           52.2201         0.628322   
    103. A(Cu 24,Cu 22,Cu 28)           84.2507         0.628548   
    104. A(Cu 23,Cu 22,Cu 28)           52.4538         0.617955   
    105. A(Cu 23,Cu 22,Cu 24)           60.8531         0.912446   
    106. A(Cu 26,Cu 22,Cu 27)           67.3674         0.876068   
    107. A(Cu 23,Cu 22,Cu 25)           84.0967         0.912101   
    108. A(Cu 24,Cu 22,Cu 27)          121.2451         0.895370   
    109. A(Cu 27,Cu 22,Cu 28)           52.9084         0.606986   
    110. A(Cu 25,Cu 22,Cu 27)           60.3927         0.895032   
    111. A(Cu 24,Cu 22,Cu 25)           61.6335         0.928584   
    112. A(Cu 23,Cu 22,Cu 27)          104.2211         0.879539   
    113. A(Cu 24,Cu 23,Cu 26)          118.7060         0.888731   
    114. A(Cu 22,Cu 23,Cu 26)           60.2539         0.901765   
    115. A(Cu 26,Cu 23,Cu 28)           60.2566         0.912516   
    116. A(Cu 25,Cu 23,Cu 26)           83.3959         0.502125   
    117. A(Cu 25,Cu 23,Cu 28)           47.4920         0.504764   
    118. A(Cu 24,Cu 23,Cu 28)           95.6553         0.893840   
    119. A(Cu 22,Cu 23,Cu 28)           74.6043         0.906957   
    120. A(Cu 25,Cu 23,Cu 29)           49.1097         0.492768   
    121. A(Cu 28,Cu 23,Cu 29)           59.5735         0.893865   
    122. A(Cu 24,Cu 23,Cu 25)           48.9865         0.492756   
    123. A(Cu 22,Cu 23,Cu 25)           47.6467         0.499336   
    124. A(Cu 22,Cu 23,Cu 24)           59.0950         0.883333   
    125. A(Cu 26,Cu 23,Cu 29)          119.1802         0.888756   
    126. A(Cu 24,Cu 23,Cu 29)           60.4465         0.870620   
    127. A(Cu 22,Cu 23,Cu 29)           95.8301         0.883358   
    128. A(Cu 25,Cu 24,Cu 28)           41.4715         0.382511   
    129. A(Cu 23,Cu 24,Cu 28)           41.7982         0.386553   
    130. A(Cu 22,Cu 24,Cu 28)           54.1290         0.397458   
    131. A(Cu 23,Cu 24,Cu 25)           82.4623         0.859979   
    132. A(Cu 22,Cu 24,Cu 25)           59.1933         0.888235   
    133. A(Cu 22,Cu 24,Cu 23)           60.0519         0.899241   
    134. A(Cu 25,Cu 24,Cu 29)           60.1382         0.849423   
    135. A(Cu 23,Cu 24,Cu 29)           59.7760         0.859894   
    136. A(Cu 22,Cu 24,Cu 29)           96.0107         0.888148   
    137. A(Cu 28,Cu 24,Cu 29)           41.8817         0.382479   
    138. A(Cu 27,Cu 25,Cu 28)           60.4708         0.906859   
    139. A(Cu 24,Cu 25,Cu 28)           95.6272         0.893298   
    140. A(Cu 23,Cu 25,Cu 28)           47.8989         0.510205   
    141. A(Cu 22,Cu 25,Cu 28)           75.3109         0.933902   
    142. A(Cu 23,Cu 25,Cu 24)           48.5512         0.487272   
    143. A(Cu 22,Cu 25,Cu 24)           59.1733         0.887900   
    144. A(Cu 22,Cu 25,Cu 23)           48.2566         0.507378   
    145. A(Cu 24,Cu 25,Cu 27)          119.2055         0.862329   
    146. A(Cu 23,Cu 25,Cu 27)           84.1594         0.493987   
    147. A(Cu 22,Cu 25,Cu 27)           60.7814         0.901371   
    148. A(Cu 27,Cu 25,Cu 29)          119.2727         0.858966   
    149. A(Cu 24,Cu 25,Cu 29)           59.9335         0.846198   
    150. A(Cu 23,Cu 25,Cu 29)           48.5343         0.485539   
    151. A(Cu 22,Cu 25,Cu 29)           95.8638         0.884425   
    152. A(Cu 28,Cu 25,Cu 29)           59.4751         0.889799   
    153. A(O   6,Cu 26,Cu 23)          168.9838         0.520980   
    154. A(Cu 23,Cu 26,Cu 28)           59.7162         0.903485   
    155. A(C   5,Cu 26,Cu 23)          151.6768         0.418810   
    156. A(Cu 22,Cu 26,Cu 28)           74.2739         0.894436   
    157. A(O   6,Cu 26,Cu 28)          131.1788         0.518973   
    158. A(C   5,Cu 26,Cu 28)          113.4727         0.417277   
    159. A(O   6,Cu 26,Cu 22)          118.1317         0.516181   
    160. A(C   5,Cu 26,Cu 22)           91.7257         0.415146   
    161. A(C   5,Cu 26,O   6)           29.9395         0.263109   
    162. A(Cu 23,Cu 26,Cu 27)           97.1775         0.730938   
    163. A(Cu 22,Cu 26,Cu 27)           56.6645         0.723806   
    164. A(O   6,Cu 26,Cu 27)           89.6781         0.427883   
    165. A(C   5,Cu 26,Cu 27)           61.8211         0.347732   
    166. A(Cu 27,Cu 26,Cu 28)           56.3502         0.727954   
    167. A(Cu 22,Cu 26,Cu 23)           60.0379         0.898197   
    168. A(Cu 25,Cu 27,Cu 26)           95.2659         0.718293   
    169. A(Cu 22,Cu 27,Cu 26)           55.9682         0.713383   
    170. A(C   4,Cu 27,Cu 26)          115.4890         0.500429   
    171. A(C   3,Cu 27,Cu 26)          115.3915         0.337496   
    172. A(C   1,Cu 27,Cu 26)           80.6899         0.491274   
    173. A(Cu 22,Cu 27,Cu 25)           58.8259         0.869233   
    174. A(C   4,Cu 27,Cu 25)          147.2597         0.603125   
    175. A(C   3,Cu 27,Cu 25)          127.0105         0.399522   
    176. A(C   4,Cu 27,Cu 22)          129.6135         0.599113   
    177. A(C   3,Cu 27,Cu 22)          103.1638         0.397100   
    178. A(C   1,Cu 27,Cu 22)          119.4088         0.587762   
    179. A(C   3,Cu 27,C   4)           29.6943         0.292018   
    180. A(C   1,Cu 27,C   4)           37.1288         0.417653   
    181. A(C   1,Cu 27,C   3)           56.8422         0.287501   
    182. A(Cu 26,Cu 27,Cu 28)           55.9188         0.721420   
    183. A(Cu 25,Cu 27,Cu 28)           58.8115         0.879277   
    184. A(Cu 22,Cu 27,Cu 28)           73.7053         0.873111   
    185. A(C   4,Cu 27,Cu 28)          148.7747         0.605680   
    186. A(C   3,Cu 27,Cu 28)          171.1681         0.401066   
    187. A(C   1,Cu 27,Cu 28)          117.0864         0.594183   
    188. A(Cu 23,Cu 28,Cu 26)           60.0272         0.908688   
    189. A(Cu 22,Cu 28,Cu 26)           52.9843         0.619074   
    190. A(Cu 24,Cu 28,Cu 25)           42.9013         0.399412   
    191. A(Cu 23,Cu 28,Cu 25)           84.6091         0.928623   
    192. A(Cu 22,Cu 28,Cu 25)           52.4690         0.631965   
    193. A(Cu 23,Cu 28,Cu 24)           42.5465         0.395402   
    194. A(Cu 22,Cu 28,Cu 24)           41.6203         0.287144   
    195. A(Cu 22,Cu 28,Cu 23)           52.9419         0.624951   
    196. A(Cu 27,Cu 28,Cu 29)          121.7583         0.898945   
    197. A(Cu 26,Cu 28,Cu 29)          120.2964         0.907313   
    198. A(Cu 25,Cu 28,Cu 29)           61.7490         0.927213   
    199. A(Cu 24,Cu 28,Cu 29)           42.9440         0.394888   
    200. A(Cu 23,Cu 28,Cu 29)           60.9340         0.916385   
    201. A(Cu 22,Cu 28,Cu 29)           84.5643         0.624052   
    202. A(Cu 26,Cu 28,Cu 27)           67.7310         0.891410   
    203. A(Cu 25,Cu 28,Cu 27)           60.7177         0.910924   
    204. A(Cu 24,Cu 28,Cu 27)           86.7412         0.388944   
    205. A(Cu 23,Cu 28,Cu 27)          105.1672         0.900306   
    206. A(Cu 22,Cu 28,Cu 27)           53.3863         0.613654   
    207. A(Cu 25,Cu 28,Cu 26)          104.4647         0.919416   
    208. A(Cu 24,Cu 28,Cu 26)           85.6653         0.392042   
    209. A(Cu 25,Cu 29,Cu 28)           58.7760         0.878128   
    210. A(Cu 24,Cu 29,Cu 28)           95.1743         0.881488   
    211. A(Cu 23,Cu 29,Cu 28)           59.4925         0.892514   
    212. A(Cu 24,Cu 29,Cu 25)           59.9283         0.846115   
    213. A(Cu 23,Cu 29,Cu 25)           82.3561         0.856649   
    214. A(Cu 23,Cu 29,Cu 24)           59.7775         0.859918   
    215. D(O   7,C   2,C   0,C   3)   -177.2830         0.025047   
    216. D(O   7,C   2,C   0,H  11)      1.1433         0.025047   
    217. D(C   5,C   2,C   0,C   3)      0.4056         0.025047   
    218. D(C   5,C   2,C   0,H  11)    178.8318         0.025047   
    219. D(Cu 27,C   3,C   0,H  11)   -130.6271         0.027269   
    220. D(C   4,C   3,C   0,H  11)   -179.7967         0.027269   
    221. D(C   8,C   3,C   0,C   2)    176.2495         0.027269   
    222. D(C   4,C   3,C   0,C   2)     -1.3880         0.027269   
    223. D(Cu 27,C   3,C   0,C   2)     47.7816         0.027269   
    224. D(C   8,C   3,C   0,H  11)     -2.1592         0.027269   
    225. D(C   3,C   4,C   1,Cu 27)     90.9735         0.025640   
    226. D(H  13,C   4,C   1,Cu 27)    -95.3875         0.025640   
    227. D(H  13,C   4,C   1,C   5)    175.1100         0.025640   
    228. D(H  13,C   4,C   3,C   0)   -173.1661         0.025870   
    229. D(C   3,C   4,C   1,H  12)   -174.9955         0.025640   
    230. D(Cu 27,C   4,C   1,C   5)    -89.5024         0.025640   
    231. D(H  13,C   4,C   1,H  12)     -1.3565         0.025640   
    232. D(C   3,C   4,C   1,C   5)      1.4711         0.025640   
    233. D(C   1,C   4,C   3,C   0)      0.4427         0.025870   
    234. D(Cu 27,C   4,C   1,H  12)     94.0310         0.025640   
    235. D(H  13,C   4,C   3,C   8)      9.1792         0.025870   
    236. D(C   1,C   4,C   3,C   8)   -177.2120         0.025870   
    237. D(Cu 27,C   4,C   3,C   0)     75.6868         0.025870   
    238. D(H  13,C   4,C   3,Cu 27)    111.1471         0.025870   
    239. D(C   1,C   4,C   3,Cu 27)    -75.2441         0.025870   
    240. D(Cu 27,C   4,C   3,C   8)   -101.9679         0.025870   
    241. D(C   2,C   5,C   1,C   4)     -2.4682         0.028530   
    242. D(O   6,C   5,C   1,C   4)    172.5534         0.028530   
    243. D(C   2,C   5,C   1,H  12)    174.0723         0.028530   
    244. D(C   1,C   5,C   2,C   0)      1.5541         0.026436   
    245. D(Cu 26,C   5,C   1,H  12)    -70.3707         0.028530   
    246. D(Cu 26,C   5,C   2,C   0)   -107.3876         0.026436   
    247. D(C   2,C   5,C   1,Cu 27)    -75.0274         0.028530   
    248. D(O   6,C   5,C   2,O   7)      4.5129         0.026436   
    249. D(Cu 26,C   5,C   2,O   7)     70.4952         0.026436   
    250. D(Cu 26,C   5,C   1,Cu 27)     40.5296         0.028530   
    251. D(Cu 26,C   5,C   1,C   4)    113.0888         0.028530   
    252. D(O   6,C   5,C   2,C   0)   -173.3699         0.026436   
    253. D(O   6,C   5,C   1,Cu 27)     99.9942         0.028530   
    254. D(C   1,C   5,C   2,O   7)    179.4369         0.026436   
    255. D(O   6,C   5,C   1,H  12)    -10.9061         0.028530   
    256. D(Cu 26,O   6,C   5,C   1)    -80.0545         0.028930   
    257. D(H  14,O   6,C   5,Cu 26)   -104.0348         0.028930   
    258. D(H  14,O   6,C   5,C   2)     -9.1075         0.028930   
    259. D(H  14,O   6,C   5,C   1)    175.9107         0.028930   
    260. D(Cu 26,O   6,C   5,C   2)     94.9273         0.028930   
    261. D(H  15,O   7,C   2,C   0)      0.2454         0.027773   
    262. D(H  15,O   7,C   2,C   5)   -177.5316         0.027773   
    263. D(H  17,C   8,C   3,C   4)   -162.0615         0.013528   
    264. D(C   9,C   8,C   3,C   0)   -101.2352         0.013528   
    265. D(H  16,C   8,C   3,C   4)    -44.2731         0.013528   
    266. D(H  16,C   8,C   3,Cu 27)   -102.6740         0.013528   
    267. D(H  17,C   8,C   3,C   0)     20.3429         0.013528   
    268. D(C   9,C   8,C   3,Cu 27)     17.9595         0.013528   
    269. D(C   9,C   8,C   3,C   4)     76.3604         0.013528   
    270. D(H  16,C   8,C   3,C   0)    138.1313         0.013528   
    271. D(H  17,C   8,C   3,Cu 27)    139.5376         0.013528   
    272. D(H  18,C   9,C   8,H  17)     63.0812         0.009822   
    273. D(N  10,C   9,C   8,H  16)   -175.6672         0.009822   
    274. D(N  10,C   9,C   8,C   3)     62.6641         0.009822   
    275. D(N  10,C   9,C   8,H  17)    -59.5201         0.009822   
    276. D(H  18,C   9,C   8,C   3)   -174.7346         0.009822   
    277. D(H  19,C   9,C   8,H  16)     62.6831         0.009822   
    278. D(H  19,C   9,C   8,C   3)    -58.9856         0.009822   
    279. D(H  19,C   9,C   8,H  17)    178.8302         0.009822   
    280. D(H  18,C   9,C   8,H  16)    -53.0660         0.009822   
    281. D(H  20,N  10,C   9,C   8)     46.5092         0.015631   
    282. D(H  21,N  10,C   9,C   8)    -70.7267         0.015631   
    283. D(H  20,N  10,C   9,H  19)    168.8531         0.015631   
    284. D(H  21,N  10,C   9,H  19)     51.6172         0.015631   
    285. D(H  20,N  10,C   9,H  18)    -75.4572         0.015631   
    286. D(H  21,N  10,C   9,H  18)    167.3069         0.015631   
    287. D(Cu 29,Cu 23,Cu 22,Cu 27)    -67.8367         0.002609   
    288. D(Cu 29,Cu 23,Cu 22,Cu 28)    -56.2114         0.002609   
    289. D(Cu 24,Cu 23,Cu 22,Cu 25)    -60.7098         0.002609   
    290. D(Cu 26,Cu 23,Cu 22,Cu 27)     52.5692         0.002609   
    291. D(Cu 28,Cu 23,Cu 22,Cu 26)    -64.1944         0.002609   
    292. D(Cu 28,Cu 23,Cu 22,Cu 27)    -11.6252         0.002609   
    293. D(Cu 29,Cu 23,Cu 22,Cu 24)     50.2853         0.002609   
    294. D(Cu 26,Cu 23,Cu 22,Cu 25)    109.9814         0.002609   
    295. D(Cu 25,Cu 23,Cu 22,Cu 28)    -45.7869         0.002609   
    296. D(Cu 24,Cu 23,Cu 22,Cu 26)   -170.6912         0.002609   
    297. D(Cu 28,Cu 23,Cu 22,Cu 24)    106.4967         0.002609   
    298. D(Cu 26,Cu 23,Cu 22,Cu 28)     64.1944         0.002609   
    299. D(Cu 26,Cu 23,Cu 22,Cu 24)    170.6912         0.002609   
    300. D(Cu 28,Cu 23,Cu 22,Cu 25)     45.7869         0.002609   
    301. D(Cu 24,Cu 23,Cu 22,Cu 28)   -106.4967         0.002609   
    302. D(Cu 25,Cu 23,Cu 22,Cu 27)    -57.4121         0.002609   
    303. D(Cu 25,Cu 23,Cu 22,Cu 24)     60.7098         0.002609   
    304. D(Cu 24,Cu 23,Cu 22,Cu 27)   -118.1220         0.002609   
    305. D(Cu 29,Cu 23,Cu 22,Cu 26)   -120.4059         0.002609   
    306. D(Cu 29,Cu 23,Cu 22,Cu 25)    -10.4245         0.002609   
    307. D(Cu 25,Cu 23,Cu 22,Cu 26)   -109.9814         0.002609   
    308. D(Cu 29,Cu 24,Cu 23,Cu 26)    109.1785         0.002421   
    309. D(Cu 25,Cu 24,Cu 22,Cu 26)    -90.3576         0.002748   
    310. D(Cu 28,Cu 24,Cu 23,Cu 29)    -50.1207         0.002421   
    311. D(Cu 28,Cu 24,Cu 23,Cu 25)      9.6025         0.002421   
    312. D(Cu 28,Cu 24,Cu 22,Cu 27)     39.6410         0.002748   
    313. D(Cu 29,Cu 24,Cu 23,Cu 25)     59.7233         0.002421   
    314. D(Cu 29,Cu 24,Cu 22,Cu 23)    -49.8473         0.002748   
    315. D(Cu 25,Cu 24,Cu 23,Cu 29)    -59.7233         0.002421   
    316. D(Cu 29,Cu 24,Cu 22,Cu 27)     39.6179         0.002748   
    317. D(Cu 22,Cu 24,Cu 23,Cu 25)    -58.6692         0.002421   
    318. D(Cu 22,Cu 24,Cu 23,Cu 26)     -9.2139         0.002421   
    319. D(Cu 25,Cu 24,Cu 23,Cu 26)     49.4552         0.002421   
    320. D(Cu 29,Cu 24,Cu 22,Cu 28)     -0.0231         0.002748   
    321. D(Cu 22,Cu 24,Cu 23,Cu 29)   -118.3925         0.002421   
    322. D(Cu 25,Cu 24,Cu 23,Cu 22)     58.6692         0.002421   
    323. D(Cu 29,Cu 24,Cu 22,Cu 26)    -40.5754         0.002748   
    324. D(Cu 25,Cu 24,Cu 23,Cu 28)     -9.6025         0.002421   
    325. D(Cu 29,Cu 24,Cu 22,Cu 25)     49.7822         0.002748   
    326. D(Cu 28,Cu 24,Cu 22,Cu 26)    -40.5522         0.002748   
    327. D(Cu 28,Cu 24,Cu 23,Cu 26)     59.0578         0.002421   
    328. D(Cu 28,Cu 24,Cu 23,Cu 22)     68.2717         0.002421   
    329. D(Cu 28,Cu 24,Cu 22,Cu 25)     49.8054         0.002748   
    330. D(Cu 28,Cu 24,Cu 22,Cu 23)    -49.8242         0.002748   
    331. D(Cu 25,Cu 24,Cu 22,Cu 28)    -49.8054         0.002748   
    332. D(Cu 29,Cu 24,Cu 23,Cu 28)     50.1207         0.002421   
    333. D(Cu 29,Cu 24,Cu 23,Cu 22)    118.3925         0.002421   
    334. D(Cu 23,Cu 24,Cu 22,Cu 27)     89.4652         0.002748   
    335. D(Cu 22,Cu 24,Cu 23,Cu 28)    -68.2717         0.002421   
    336. D(Cu 23,Cu 24,Cu 22,Cu 26)      9.2719         0.002748   
    337. D(Cu 23,Cu 24,Cu 22,Cu 25)     99.6295         0.002748   
    338. D(Cu 23,Cu 24,Cu 22,Cu 28)     49.8242         0.002748   
    339. D(Cu 25,Cu 24,Cu 22,Cu 23)    -99.6295         0.002748   
    340. D(Cu 25,Cu 24,Cu 22,Cu 27)    -10.1643         0.002748   
    341. D(Cu 29,Cu 25,Cu 24,Cu 23)     59.3670         0.002320   
    342. D(Cu 28,Cu 25,Cu 24,Cu 29)    -49.7021         0.002320   
    343. D(Cu 22,Cu 25,C   1,C   4)   -114.4093         0.001500   
    344. D(Cu 23,Cu 25,C   1,C   5)    -41.7242         0.001500   
    345. D(Cu 28,Cu 25,Cu 24,Cu 22)     69.1747         0.002320   
    346. D(Cu 27,Cu 25,Cu 24,Cu 28)    -59.1827         0.002320   
    347. D(Cu 24,Cu 25,C   1,H  12)    114.4498         0.001500   
    348. D(Cu 23,Cu 25,Cu 24,Cu 29)    -59.3670         0.002320   
    349. D(Cu 23,Cu 25,Cu 24,Cu 28)     -9.6649         0.002320   
    350. D(Cu 22,Cu 25,Cu 24,Cu 23)    -59.5098         0.002320   
    351. D(Cu 23,Cu 25,Cu 22,Cu 26)     56.7480         0.002806   
    352. D(Cu 29,Cu 25,Cu 23,Cu 22)   -166.2249         0.001504   
    353. D(Cu 29,Cu 25,C   1,C   5)    -76.4603         0.001500   
    354. D(Cu 28,Cu 25,Cu 23,Cu 29)    -83.3936         0.001504   
    355. D(Cu 28,Cu 25,Cu 23,Cu 24)   -166.9864         0.001504   
    356. D(Cu 28,Cu 25,Cu 23,Cu 22)    110.3815         0.001504   
    357. D(Cu 28,Cu 25,Cu 22,Cu 23)    -45.9730         0.002806   
    358. D(Cu 27,Cu 25,Cu 23,Cu 24)    138.1349         0.001504   
    359. D(Cu 29,Cu 25,Cu 22,Cu 24)    -49.6250         0.002806   
    360. D(Cu 24,Cu 25,Cu 23,Cu 26)   -137.8591         0.001504   
    361. D(Cu 22,Cu 25,Cu 23,Cu 26)    -55.2271         0.001504   
    362. D(Cu 22,Cu 25,Cu 23,Cu 24)     82.6321         0.001504   
    363. D(Cu 29,Cu 25,Cu 22,Cu 28)     56.3059         0.002806   
    364. D(Cu 22,Cu 25,Cu 23,Cu 28)   -110.3815         0.001504   
    365. D(Cu 29,Cu 25,Cu 22,Cu 27)    120.3816         0.002806   
    366. D(Cu 29,Cu 25,Cu 22,Cu 26)     67.0810         0.002806   
    367. D(Cu 24,Cu 25,Cu 23,Cu 28)    166.9864         0.001504   
    368. D(Cu 29,Cu 25,Cu 22,Cu 23)     10.3330         0.002806   
    369. D(Cu 24,Cu 25,Cu 23,Cu 29)     83.5928         0.001504   
    370. D(Cu 28,Cu 25,Cu 22,Cu 27)     64.0757         0.002806   
    371. D(Cu 27,Cu 25,Cu 23,Cu 22)     55.5028         0.001504   
    372. D(Cu 28,Cu 25,Cu 22,Cu 26)     10.7751         0.002806   
    373. D(Cu 27,Cu 25,Cu 23,Cu 28)    -54.8787         0.001504   
    374. D(Cu 27,Cu 25,Cu 23,Cu 29)   -138.2723         0.001504   
    375. D(Cu 27,Cu 25,Cu 23,Cu 26)      0.2757         0.001504   
    376. D(Cu 27,Cu 25,Cu 22,Cu 28)    -64.0757         0.002806   
    377. D(Cu 27,Cu 25,Cu 22,Cu 26)    -53.3006         0.002806   
    378. D(Cu 24,Cu 25,Cu 23,Cu 22)    -82.6321         0.001504   
    379. D(Cu 27,Cu 25,Cu 22,Cu 24)   -170.0067         0.002806   
    380. D(Cu 27,Cu 25,Cu 22,Cu 23)   -110.0487         0.002806   
    381. D(Cu 28,Cu 25,Cu 23,Cu 26)     55.1545         0.001504   
    382. D(Cu 29,Cu 25,Cu 23,Cu 26)    138.5481         0.001504   
    383. D(Cu 24,Cu 25,Cu 22,Cu 28)    105.9310         0.002806   
    384. D(Cu 29,Cu 25,Cu 23,Cu 24)    -83.5928         0.001504   
    385. D(Cu 24,Cu 25,Cu 22,Cu 27)    170.0067         0.002806   
    386. D(Cu 29,Cu 25,Cu 23,Cu 28)     83.3936         0.001504   
    387. D(Cu 28,Cu 25,Cu 22,Cu 24)   -105.9310         0.002806   
    388. D(Cu 23,Cu 25,Cu 22,Cu 28)     45.9730         0.002806   
    389. D(Cu 29,Cu 25,C   1,H  12)     45.8062         0.001500   
    390. D(Cu 23,Cu 25,Cu 22,Cu 27)    110.0487         0.002806   
    391. D(Cu 29,Cu 25,C   1,C   4)    165.0516         0.001500   
    392. D(Cu 22,Cu 25,Cu 24,Cu 29)   -118.8768         0.002320   
    393. D(Cu 23,Cu 25,Cu 22,Cu 24)    -59.9580         0.002806   
    394. D(Cu 23,Cu 25,Cu 24,Cu 22)     59.5098         0.002320   
    395. D(Cu 27,Cu 25,Cu 24,Cu 22)      9.9920         0.002320   
    396. D(Cu 24,Cu 25,Cu 22,Cu 23)     59.9580         0.002806   
    397. D(Cu 22,Cu 25,Cu 24,Cu 28)    -69.1747         0.002320   
    398. D(Cu 27,Cu 25,Cu 24,Cu 29)   -108.8848         0.002320   
    399. D(Cu 24,Cu 25,Cu 22,Cu 26)    116.7060         0.002806   
    400. D(Cu 28,Cu 25,C   1,H  12)     35.7637         0.001500   
    401. D(Cu 28,Cu 25,C   1,C   5)    -86.5028         0.001500   
    402. D(Cu 28,Cu 25,Cu 24,Cu 23)      9.6649         0.002320   
    403. D(Cu 27,Cu 25,Cu 24,Cu 23)    -49.5177         0.002320   
    404. D(Cu 28,Cu 25,C   1,C   4)    155.0091         0.001500   
    405. D(Cu 24,Cu 25,C   1,C   5)     -7.8167         0.001500   
    406. D(Cu 23,Cu 25,C   1,H  12)     80.5423         0.001500   
    407. D(Cu 24,Cu 25,C   1,C   4)   -126.3047         0.001500   
    408. D(Cu 23,Cu 25,C   1,C   4)   -160.2122         0.001500   
    409. D(Cu 22,Cu 25,C   1,H  12)    126.3452         0.001500   
    410. D(Cu 29,Cu 25,Cu 24,Cu 22)    118.8768         0.002320   
    411. D(Cu 22,Cu 25,Cu 23,Cu 29)    166.2249         0.001504   
    412. D(Cu 29,Cu 25,Cu 24,Cu 28)     49.7021         0.002320   
    413. D(Cu 22,Cu 25,C   1,C   5)      4.0787         0.001500   
    414. D(O   6,Cu 26,Cu 23,Cu 25)    127.8654         0.002674   
    415. D(O   6,Cu 26,Cu 23,Cu 24)     92.6105         0.002674   
    416. D(C   5,Cu 26,Cu 23,Cu 28)     83.6095         0.002674   
    417. D(Cu 23,Cu 26,C   5,C   2)     41.9312         0.001510   
    418. D(Cu 28,Cu 26,Cu 22,Cu 27)    -59.7469         0.002568   
    419. D(Cu 28,Cu 26,Cu 22,Cu 23)     63.7436         0.002568   
    420. D(Cu 27,Cu 26,Cu 22,Cu 28)     59.7469         0.002568   
    421. D(Cu 27,Cu 26,Cu 22,Cu 25)     49.0478         0.002568   
    422. D(Cu 23,Cu 26,Cu 22,Cu 28)    -63.7436         0.002568   
    423. D(C   5,Cu 26,O   6,H  14)    108.7443         0.001601   
    424. D(O   6,Cu 26,Cu 22,Cu 28)    128.6892         0.002568   
    425. D(Cu 27,Cu 26,O   6,C   5)     20.5373         0.001601   
    426. D(O   6,Cu 26,Cu 22,Cu 23)   -167.5672         0.002568   
    427. D(C   5,Cu 26,Cu 22,Cu 23)    177.6664         0.002568   
    428. D(C   5,Cu 26,Cu 22,Cu 25)    103.2237         0.002568   
    429. D(C   5,Cu 26,Cu 22,Cu 24)    168.2871         0.002568   
    430. D(Cu 28,Cu 26,O   6,H  14)    171.4531         0.001601   
    431. D(C   5,Cu 26,Cu 22,Cu 28)    113.9228         0.002568   
    432. D(O   6,Cu 26,Cu 22,Cu 24)   -176.9465         0.002568   
    433. D(Cu 28,Cu 26,O   6,C   5)     62.7088         0.001601   
    434. D(Cu 27,Cu 26,O   6,H  14)    129.2816         0.001601   
    435. D(O   6,Cu 26,Cu 22,Cu 27)     68.9423         0.002568   
    436. D(C   5,Cu 26,Cu 22,Cu 27)     54.1759         0.002568   
    437. D(Cu 23,Cu 26,O   6,H  14)      0.5993         0.001601   
    438. D(Cu 23,Cu 26,O   6,C   5)   -108.1450         0.001601   
    439. D(Cu 22,Cu 26,O   6,H  14)     78.0498         0.001601   
    440. D(Cu 23,Cu 26,Cu 22,Cu 24)     -9.3793         0.002568   
    441. D(O   6,Cu 26,Cu 22,Cu 25)    117.9901         0.002568   
    442. D(Cu 22,Cu 26,O   6,C   5)    -30.6945         0.001601   
    443. D(Cu 27,Cu 26,Cu 22,Cu 23)    123.4905         0.002568   
    444. D(Cu 23,Cu 26,Cu 22,Cu 27)   -123.4905         0.002568   
    445. D(Cu 28,Cu 26,C   5,O   6)   -133.1788         0.001510   
    446. D(Cu 28,Cu 26,C   5,C   2)    111.2553         0.001510   
    447. D(Cu 27,Cu 26,Cu 22,Cu 24)    114.1113         0.002568   
    448. D(Cu 28,Cu 26,C   5,C   1)    -13.3217         0.001510   
    449. D(Cu 27,Cu 26,C   5,O   6)   -156.5480         0.001510   
    450. D(Cu 28,Cu 26,Cu 22,Cu 24)     54.3643         0.002568   
    451. D(Cu 27,Cu 26,C   5,C   2)     87.8861         0.001510   
    452. D(Cu 27,Cu 26,C   5,C   1)    -36.6909         0.001510   
    453. D(Cu 23,Cu 26,Cu 22,Cu 25)    -74.4427         0.002568   
    454. D(C   5,Cu 26,Cu 23,Cu 24)      4.1836         0.002674   
    455. D(C   5,Cu 26,Cu 23,Cu 25)     39.4385         0.002674   
    456. D(C   5,Cu 26,Cu 23,Cu 22)     -4.9211         0.002674   
    457. D(C   5,Cu 26,Cu 23,Cu 29)     74.4111         0.002674   
    458. D(Cu 23,Cu 26,C   5,C   1)    -82.6458         0.001510   
    459. D(Cu 23,Cu 26,C   5,O   6)    157.4971         0.001510   
    460. D(Cu 22,Cu 26,C   5,O   6)    153.2331         0.001510   
    461. D(Cu 22,Cu 26,C   5,C   2)     37.6672         0.001510   
    462. D(Cu 22,Cu 26,C   5,C   1)    -86.9099         0.001510   
    463. D(O   6,Cu 26,Cu 23,Cu 22)     83.5059         0.002674   
    464. D(O   6,Cu 26,C   5,C   2)   -115.5659         0.001510   
    465. D(O   6,Cu 26,Cu 23,Cu 28)    172.0364         0.002674   
    466. D(O   6,Cu 26,C   5,C   1)    119.8571         0.001510   
    467. D(Cu 22,Cu 26,Cu 23,Cu 24)      9.1046         0.002674   
    468. D(O   6,Cu 26,Cu 23,Cu 29)    162.8380         0.002674   
    469. D(Cu 28,Cu 26,Cu 22,Cu 25)    -10.6991         0.002568   
    470. D(Cu 27,Cu 26,Cu 23,Cu 29)     34.7233         0.002674   
    471. D(Cu 28,Cu 26,Cu 23,Cu 24)    -79.4259         0.002674   
    472. D(Cu 28,Cu 26,Cu 23,Cu 22)    -88.5305         0.002674   
    473. D(Cu 28,Cu 26,Cu 23,Cu 25)    -44.1710         0.002674   
    474. D(Cu 27,Cu 26,Cu 23,Cu 28)     43.9217         0.002674   
    475. D(Cu 27,Cu 26,Cu 23,Cu 25)     -0.2493         0.002674   
    476. D(Cu 27,Cu 26,Cu 23,Cu 24)    -35.5042         0.002674   
    477. D(Cu 27,Cu 26,Cu 23,Cu 22)    -44.6088         0.002674   
    478. D(Cu 22,Cu 26,Cu 23,Cu 29)     79.3321         0.002674   
    479. D(Cu 22,Cu 26,Cu 23,Cu 28)     88.5305         0.002674   
    480. D(Cu 22,Cu 26,Cu 23,Cu 25)     44.3595         0.002674   
    481. D(Cu 28,Cu 26,Cu 23,Cu 29)     -9.1984         0.002674   
    482. D(Cu 28,Cu 27,Cu 26,Cu 23)    -46.0206         0.001662   
    483. D(Cu 28,Cu 27,Cu 26,O   6)    142.6264         0.001662   
    484. D(Cu 28,Cu 27,Cu 26,C   5)    154.0832         0.001662   
    485. D(Cu 25,Cu 27,Cu 26,Cu 28)     46.3500         0.001662   
    486. D(Cu 25,Cu 27,Cu 26,Cu 23)      0.3294         0.001662   
    487. D(Cu 25,Cu 27,Cu 26,Cu 22)    -46.4086         0.001662   
    488. D(Cu 25,Cu 27,Cu 26,O   6)   -171.0237         0.001662   
    489. D(Cu 25,Cu 27,Cu 26,C   5)   -159.5669         0.001662   
    490. D(Cu 22,Cu 27,Cu 26,Cu 23)     46.7380         0.001662   
    491. D(Cu 22,Cu 27,Cu 26,O   6)   -124.6151         0.001662   
    492. D(Cu 22,Cu 27,Cu 26,C   5)   -113.1583         0.001662   
    493. D(C   4,Cu 27,Cu 26,Cu 23)    168.7697         0.001662   
    494. D(C   4,Cu 27,Cu 26,Cu 22)    122.0317         0.001662   
    495. D(C   4,Cu 27,Cu 26,O   6)     -2.5834         0.001662   
    496. D(C   3,Cu 27,Cu 26,Cu 28)   -178.1786         0.001662   
    497. D(C   3,Cu 27,Cu 26,Cu 23)    135.8009         0.001662   
    498. D(C   3,Cu 27,Cu 26,Cu 22)     89.0629         0.001662   
    499. D(C   3,Cu 27,Cu 26,O   6)    -35.5522         0.001662   
    500. D(C   3,Cu 27,Cu 26,C   5)    -24.0954         0.001662   
    501. D(C   1,Cu 27,Cu 26,Cu 28)   -131.9138         0.001662   
    502. D(C   1,Cu 27,Cu 26,Cu 23)   -177.9343         0.001662   
    503. D(C   1,Cu 27,Cu 26,O   6)     10.7126         0.001662   
    504. D(C   1,Cu 27,Cu 26,C   5)     22.1694         0.001662   
    505. D(Cu 28,Cu 27,Cu 25,Cu 29)      9.3508         0.002539   
    506. D(Cu 28,Cu 27,Cu 25,Cu 23)     44.2250         0.002539   
    507. D(Cu 28,Cu 27,Cu 25,Cu 22)     89.0203         0.002539   
    508. D(Cu 26,Cu 27,Cu 25,Cu 29)    -35.1198         0.002539   
    509. D(Cu 26,Cu 27,Cu 25,Cu 24)     34.7201         0.002539   
    510. D(Cu 26,Cu 27,Cu 25,Cu 23)     -0.2456         0.002539   
    511. D(Cu 26,Cu 27,Cu 25,Cu 22)     44.5498         0.002539   
    512. D(Cu 22,Cu 27,Cu 25,Cu 29)    -79.6696         0.002539   
    513. D(Cu 22,Cu 27,Cu 25,Cu 28)    -89.0203         0.002539   
    514. D(Cu 22,Cu 27,Cu 25,Cu 24)     -9.8296         0.002539   
    515. D(Cu 22,Cu 27,Cu 25,Cu 23)    -44.7954         0.002539   
    516. D(C   4,Cu 27,Cu 25,Cu 28)    155.0689         0.002539   
    517. D(C   4,Cu 27,Cu 25,Cu 24)   -125.7404         0.002539   
    518. D(C   4,Cu 27,Cu 25,Cu 23)   -160.7061         0.002539   
    519. D(C   3,Cu 27,Cu 25,Cu 29)   -162.6188         0.002539   
    520. D(C   3,Cu 27,Cu 25,Cu 28)   -171.9695         0.002539   
    521. D(C   3,Cu 27,Cu 25,Cu 24)    -92.7788         0.002539   
    522. D(C   3,Cu 27,Cu 25,Cu 22)    -82.9492         0.002539   
    523. D(Cu 28,Cu 27,Cu 22,Cu 26)     59.5313         0.002472   
    524. D(Cu 28,Cu 27,Cu 22,Cu 25)    -63.0167         0.002472   
    525. D(Cu 28,Cu 27,Cu 22,Cu 24)    -52.7284         0.002472   
    526. D(Cu 28,Cu 27,Cu 22,Cu 23)     11.5542         0.002472   
    527. D(Cu 26,Cu 27,Cu 22,Cu 28)    -59.5313         0.002472   
    528. D(Cu 26,Cu 27,Cu 22,Cu 25)   -122.5480         0.002472   
    529. D(Cu 26,Cu 27,Cu 22,Cu 23)    -47.9771         0.002472   
    530. D(Cu 25,Cu 27,Cu 22,Cu 28)     63.0167         0.002472   
    531. D(Cu 25,Cu 27,Cu 22,Cu 26)    122.5480         0.002472   
    532. D(Cu 25,Cu 27,Cu 22,Cu 23)     74.5709         0.002472   
    533. D(C   4,Cu 27,Cu 22,Cu 28)   -156.1423         0.002472   
    534. D(C   4,Cu 27,Cu 22,Cu 26)    -96.6110         0.002472   
    535. D(C   4,Cu 27,Cu 22,Cu 25)    140.8410         0.002472   
    536. D(C   4,Cu 27,Cu 22,Cu 24)    151.1293         0.002472   
    537. D(C   4,Cu 27,Cu 22,Cu 23)   -144.5881         0.002472   
    538. D(C   3,Cu 27,Cu 22,Cu 28)   -171.4593         0.002472   
    539. D(C   3,Cu 27,Cu 22,Cu 26)   -111.9280         0.002472   
    540. D(C   3,Cu 27,Cu 22,Cu 25)    125.5240         0.002472   
    541. D(C   3,Cu 27,Cu 22,Cu 24)    135.8123         0.002472   
    542. D(C   3,Cu 27,Cu 22,Cu 23)   -159.9051         0.002472   
    543. D(C   1,Cu 27,Cu 22,Cu 28)   -112.3207         0.002472   
    544. D(Cu 25,Cu 27,Cu 22,Cu 24)     10.2883         0.002472   
    545. D(C   1,Cu 27,Cu 22,Cu 26)    -52.7894         0.002472   
    546. D(C   1,Cu 27,Cu 22,Cu 25)   -175.3374         0.002472   
    547. D(C   1,Cu 27,Cu 22,Cu 24)   -165.0491         0.002472   
    548. D(Cu 26,Cu 27,Cu 22,Cu 24)   -112.2597         0.002472   
    549. D(C   1,Cu 27,Cu 22,Cu 23)   -100.7665         0.002472   
    550. D(Cu 28,Cu 27,C   4,H  13)     73.3762         0.002011   
    551. D(Cu 28,Cu 27,C   4,C   3)   -162.7885         0.002011   
    552. D(Cu 28,Cu 27,C   4,C   1)    -43.6408         0.002011   
    553. D(Cu 26,Cu 27,C   4,H  13)    139.1027         0.002011   
    554. D(Cu 26,Cu 27,C   4,C   3)    -97.0620         0.002011   
    555. D(Cu 26,Cu 27,C   4,C   1)     22.0856         0.002011   
    556. D(C   3,Cu 27,Cu 25,Cu 23)   -127.7446         0.002539   
    557. D(Cu 25,Cu 27,C   4,H  13)    -62.5486         0.002011   
    558. D(Cu 25,Cu 27,C   4,C   3)     61.2867         0.002011   
    559. D(Cu 25,Cu 27,C   4,C   1)   -179.5656         0.002011   
    560. D(C   4,Cu 27,Cu 25,Cu 22)   -115.9107         0.002539   
    561. D(Cu 22,Cu 27,C   4,H  13)   -155.1166         0.002011   
    562. D(Cu 22,Cu 27,C   4,C   3)    -31.2814         0.002011   
    563. D(Cu 22,Cu 27,C   4,C   1)     87.8663         0.002011   
    564. D(C   4,Cu 27,Cu 25,Cu 29)    164.4197         0.002539   
    565. D(C   3,Cu 27,C   4,H  13)   -123.8353         0.002011   
    566. D(C   3,Cu 27,C   4,C   1)    119.1477         0.002011   
    567. D(C   1,Cu 27,C   4,H  13)    117.0171         0.002011   
    568. D(C   1,Cu 27,C   4,C   3)   -119.1477         0.002011   
    569. D(Cu 28,Cu 27,C   3,C   8)   -164.2495         0.001507   
    570. D(Cu 26,Cu 27,C   1,H  12)     81.3519         0.001920   
    571. D(Cu 28,Cu 27,C   3,C   0)    -33.2555         0.001507   
    572. D(Cu 26,Cu 27,Cu 25,Cu 28)    -44.4706         0.002539   
    573. D(Cu 25,Cu 27,C   3,C   8)    -35.3617         0.001507   
    574. D(Cu 25,Cu 27,C   3,C   4)   -143.5582         0.001507   
    575. D(Cu 22,Cu 27,C   3,C   8)    -96.0585         0.001507   
    576. D(Cu 28,Cu 27,Cu 25,Cu 24)     79.1907         0.002539   
    577. D(Cu 22,Cu 27,C   3,C   4)    155.7449         0.001507   
    578. D(Cu 22,Cu 27,C   3,C   0)     34.9354         0.001507   
    579. D(C   4,Cu 27,C   3,C   8)    108.1965         0.001507   
    580. D(C   1,Cu 27,Cu 26,Cu 22)    135.3277         0.001662   
    581. D(C   4,Cu 27,C   3,C   0)   -120.8095         0.001507   
    582. D(C   1,Cu 27,C   3,C   8)    147.2252         0.001507   
    583. D(C   1,Cu 27,C   3,C   4)     39.0286         0.001507   
    584. D(C   1,Cu 27,C   3,C   0)    -81.7809         0.001507   
    585. D(Cu 25,Cu 27,C   3,C   0)     95.6323         0.001507   
    586. D(Cu 28,Cu 27,C   1,H  12)     37.5421         0.001920   
    587. D(Cu 26,Cu 27,C   3,C   0)    -23.3827         0.001507   
    588. D(C   4,Cu 27,Cu 26,C   5)      8.8734         0.001662   
    589. D(Cu 28,Cu 27,C   1,C   5)    -85.4797         0.001920   
    590. D(Cu 28,Cu 27,C   1,C   4)    156.3065         0.001920   
    591. D(Cu 28,Cu 27,C   3,C   4)     87.5540         0.001507   
    592. D(C   4,Cu 27,Cu 26,Cu 28)   -145.2098         0.001662   
    593. D(Cu 26,Cu 27,C   3,C   8)   -154.3766         0.001507   
    594. D(Cu 26,Cu 27,C   1,C   5)    -41.6700         0.001920   
    595. D(Cu 26,Cu 27,C   1,C   4)   -159.8837         0.001920   
    596. D(Cu 22,Cu 27,Cu 26,Cu 28)     92.7586         0.001662   
    597. D(Cu 22,Cu 27,C   1,H  12)    123.3282         0.001920   
    598. D(Cu 22,Cu 27,C   1,C   5)      0.3064         0.001920   
    599. D(Cu 22,Cu 27,C   1,C   4)   -117.9074         0.001920   
    600. D(C   4,Cu 27,C   1,H  12)   -118.7644         0.001920   
    601. D(C   3,Cu 27,C   1,C   4)    -31.1173         0.001920   
    602. D(C   3,Cu 27,C   1,H  12)   -149.8817         0.001920   
    603. D(C   3,Cu 27,C   1,C   5)     87.0965         0.001920   
    604. D(Cu 28,Cu 27,Cu 26,Cu 22)    -92.7586         0.001662   
    605. D(C   4,Cu 27,C   1,C   5)    118.2138         0.001920   
    606. D(Cu 26,Cu 27,C   3,C   4)     97.4268         0.001507   
    607. D(Cu 29,Cu 28,Cu 26,C   5)   -139.6367         0.002681   
    608. D(Cu 27,Cu 28,Cu 26,Cu 23)    124.2313         0.002681   
    609. D(Cu 27,Cu 28,Cu 26,Cu 22)     60.1061         0.002681   
    610. D(Cu 27,Cu 28,Cu 26,C   5)    -24.8359         0.002681   
    611. D(Cu 25,Cu 28,Cu 26,Cu 27)    -49.3474         0.002681   
    612. D(Cu 25,Cu 28,Cu 26,Cu 23)     74.8839         0.002681   
    613. D(Cu 25,Cu 28,Cu 26,O   6)   -103.1003         0.002681   
    614. D(Cu 25,Cu 28,Cu 26,C   5)    -74.1833         0.002681   
    615. D(Cu 24,Cu 28,Cu 26,Cu 27)    -88.2485         0.002681   
    616. D(Cu 24,Cu 28,Cu 26,Cu 23)     35.9828         0.002681   
    617. D(Cu 24,Cu 28,Cu 26,Cu 22)    -28.1424         0.002681   
    618. D(Cu 24,Cu 28,Cu 26,O   6)   -142.0015         0.002681   
    619. D(Cu 24,Cu 28,Cu 26,C   5)   -113.0844         0.002681   
    620. D(Cu 23,Cu 28,Cu 26,Cu 22)    -64.1252         0.002681   
    621. D(Cu 23,Cu 28,Cu 26,O   6)   -177.9843         0.002681   
    622. D(Cu 23,Cu 28,Cu 26,C   5)   -149.0672         0.002681   
    623. D(Cu 22,Cu 28,Cu 26,Cu 23)     64.1252         0.002681   
    624. D(Cu 22,Cu 28,Cu 26,O   6)   -113.8590         0.002681   
    625. D(Cu 22,Cu 28,Cu 26,C   5)    -84.9419         0.002681   
    626. D(Cu 29,Cu 28,Cu 25,Cu 24)     50.0198         0.002948   
    627. D(Cu 29,Cu 28,Cu 25,Cu 23)     59.7845         0.002948   
    628. D(Cu 29,Cu 28,Cu 25,Cu 22)    106.0916         0.002948   
    629. D(Cu 27,Cu 28,Cu 25,Cu 29)   -170.5299         0.002948   
    630. D(Cu 27,Cu 28,Cu 25,Cu 24)   -120.5101         0.002948   
    631. D(Cu 27,Cu 28,Cu 25,Cu 23)   -110.7454         0.002948   
    632. D(Cu 27,Cu 28,Cu 25,Cu 22)    -64.4383         0.002948   
    633. D(Cu 26,Cu 28,Cu 25,Cu 27)     53.6048         0.002948   
    634. D(Cu 26,Cu 28,Cu 25,Cu 24)    -66.9054         0.002948   
    635. D(Cu 26,Cu 28,Cu 25,Cu 23)    -57.1407         0.002948   
    636. D(Cu 24,Cu 28,Cu 25,Cu 29)    -50.0198         0.002948   
    637. D(Cu 24,Cu 28,Cu 25,Cu 27)    120.5101         0.002948   
    638. D(Cu 24,Cu 28,Cu 25,Cu 23)      9.7647         0.002948   
    639. D(Cu 23,Cu 28,Cu 25,Cu 29)    -59.7845         0.002948   
    640. D(Cu 23,Cu 28,Cu 25,Cu 27)    110.7454         0.002948   
    641. D(Cu 23,Cu 28,Cu 25,Cu 24)     -9.7647         0.002948   
    642. D(Cu 23,Cu 28,Cu 25,Cu 22)     46.3072         0.002948   
    643. D(Cu 22,Cu 28,Cu 25,Cu 29)   -106.0916         0.002948   
    644. D(Cu 22,Cu 28,Cu 25,Cu 27)     64.4383         0.002948   
    645. D(Cu 22,Cu 28,Cu 25,Cu 24)    -56.0719         0.002948   
    646. D(Cu 29,Cu 28,Cu 24,Cu 25)    -97.7935         0.001500   
    647. D(Cu 29,Cu 28,Cu 24,Cu 23)     96.6670         0.001500   
    648. D(Cu 29,Cu 28,Cu 24,Cu 22)   -179.9655         0.001500   
    649. D(Cu 27,Cu 28,Cu 24,Cu 25)     48.8221         0.001500   
    650. D(Cu 27,Cu 28,Cu 24,Cu 23)   -116.7174         0.001500   
    651. D(Cu 27,Cu 28,Cu 24,Cu 22)    -33.3500         0.001500   
    652. D(Cu 26,Cu 28,Cu 24,Cu 25)    116.7148         0.001500   
    653. D(Cu 26,Cu 28,Cu 24,Cu 23)    -48.8247         0.001500   
    654. D(Cu 26,Cu 28,Cu 24,Cu 22)     34.5428         0.001500   
    655. D(Cu 25,Cu 28,Cu 24,Cu 29)     97.7935         0.001500   
    656. D(Cu 25,Cu 28,Cu 24,Cu 23)   -165.5395         0.001500   
    657. D(Cu 25,Cu 28,Cu 24,Cu 22)    -82.1721         0.001500   
    658. D(Cu 23,Cu 28,Cu 24,Cu 29)    -96.6670         0.001500   
    659. D(Cu 23,Cu 28,Cu 24,Cu 25)    165.5395         0.001500   
    660. D(Cu 23,Cu 28,Cu 24,Cu 22)     83.3675         0.001500   
    661. D(Cu 22,Cu 28,Cu 24,Cu 29)    179.9655         0.001500   
    662. D(Cu 22,Cu 28,Cu 24,Cu 25)     82.1721         0.001500   
    663. D(Cu 22,Cu 28,Cu 24,Cu 23)    -83.3675         0.001500   
    664. D(Cu 29,Cu 28,Cu 23,Cu 26)   -170.6852         0.002797   
    665. D(Cu 29,Cu 28,Cu 23,Cu 25)    -60.5613         0.002797   
    666. D(Cu 29,Cu 28,Cu 23,Cu 24)    -50.7303         0.002797   
    667. D(Cu 29,Cu 28,Cu 23,Cu 22)   -106.4940         0.002797   
    668. D(Cu 26,Cu 28,Cu 24,Cu 29)   -145.4917         0.001500   
    669. D(Cu 27,Cu 28,Cu 23,Cu 29)    118.2447         0.002797   
    670. D(Cu 27,Cu 28,Cu 23,Cu 26)    -52.4406         0.002797   
    671. D(Cu 27,Cu 28,Cu 23,Cu 25)     57.6833         0.002797   
    672. D(Cu 27,Cu 28,Cu 24,Cu 29)    146.6156         0.001500   
    673. D(Cu 27,Cu 28,Cu 23,Cu 24)     67.5144         0.002797   
    674. D(Cu 27,Cu 28,Cu 23,Cu 22)     11.7507         0.002797   
    675. D(Cu 26,Cu 28,Cu 23,Cu 29)    170.6852         0.002797   
    676. D(Cu 22,Cu 28,Cu 25,Cu 23)    -46.3072         0.002948   
    677. D(Cu 26,Cu 28,Cu 23,Cu 25)    110.1239         0.002797   
    678. D(Cu 26,Cu 28,Cu 23,Cu 24)    119.9550         0.002797   
    679. D(Cu 26,Cu 28,Cu 23,Cu 22)     64.1913         0.002797   
    680. D(Cu 25,Cu 28,Cu 23,Cu 29)     60.5613         0.002797   
    681. D(Cu 25,Cu 28,Cu 23,Cu 26)   -110.1239         0.002797   
    682. D(Cu 25,Cu 28,Cu 23,Cu 24)      9.8311         0.002797   
    683. D(Cu 25,Cu 28,Cu 23,Cu 22)    -45.9326         0.002797   
    684. D(Cu 24,Cu 28,Cu 25,Cu 22)     56.0719         0.002948   
    685. D(Cu 24,Cu 28,Cu 23,Cu 29)     50.7303         0.002797   
    686. D(Cu 24,Cu 28,Cu 23,Cu 26)   -119.9550         0.002797   
    687. D(Cu 24,Cu 28,Cu 23,Cu 25)     -9.8311         0.002797   
    688. D(Cu 26,Cu 28,Cu 25,Cu 22)    -10.8335         0.002948   
    689. D(Cu 24,Cu 28,Cu 23,Cu 22)    -55.7637         0.002797   
    690. D(Cu 22,Cu 28,Cu 23,Cu 29)    106.4940         0.002797   
    691. D(Cu 22,Cu 28,Cu 23,Cu 26)    -64.1913         0.002797   
    692. D(Cu 26,Cu 28,Cu 25,Cu 29)   -116.9251         0.002948   
    693. D(Cu 22,Cu 28,Cu 23,Cu 25)     45.9326         0.002797   
    694. D(Cu 22,Cu 28,Cu 23,Cu 24)     55.7637         0.002797   
    695. D(Cu 29,Cu 28,Cu 22,Cu 27)   -136.8357         0.001535   
    696. D(Cu 29,Cu 28,Cu 22,Cu 26)    134.9428         0.001535   
    697. D(Cu 29,Cu 28,Cu 22,Cu 25)    -58.2326         0.001535   
    698. D(Cu 29,Cu 28,Cu 22,Cu 24)      0.0236         0.001535   
    699. D(Cu 29,Cu 28,Cu 22,Cu 23)     57.3390         0.001535   
    700. D(Cu 29,Cu 28,Cu 25,Cu 27)    170.5299         0.002948   
    701. D(Cu 27,Cu 28,Cu 22,Cu 26)    -88.2214         0.001535   
    702. D(Cu 27,Cu 28,Cu 22,Cu 25)     78.6032         0.001535   
    703. D(Cu 27,Cu 28,Cu 22,Cu 24)    136.8593         0.001535   
    704. D(Cu 22,Cu 28,Cu 26,Cu 27)    -60.1061         0.002681   
    705. D(Cu 27,Cu 28,Cu 22,Cu 23)   -165.8252         0.001535   
    706. D(Cu 26,Cu 28,Cu 22,Cu 27)     88.2214         0.001535   
    707. D(Cu 26,Cu 28,Cu 22,Cu 25)    166.8246         0.001535   
    708. D(Cu 23,Cu 28,Cu 26,Cu 27)   -124.2313         0.002681   
    709. D(Cu 26,Cu 28,Cu 22,Cu 24)   -134.9192         0.001535   
    710. D(Cu 26,Cu 28,Cu 22,Cu 23)    -77.6038         0.001535   
    711. D(Cu 25,Cu 28,Cu 22,Cu 27)    -78.6032         0.001535   
    712. D(Cu 25,Cu 28,Cu 22,Cu 26)   -166.8246         0.001535   
    713. D(Cu 25,Cu 28,Cu 22,Cu 24)     58.2561         0.001535   
    714. D(Cu 25,Cu 28,Cu 22,Cu 23)    115.5716         0.001535   
    715. D(Cu 24,Cu 28,Cu 22,Cu 27)   -136.8593         0.001535   
    716. D(Cu 25,Cu 28,Cu 26,Cu 22)     10.7587         0.002681   
    717. D(Cu 24,Cu 28,Cu 22,Cu 26)    134.9192         0.001535   
    718. D(Cu 24,Cu 28,Cu 22,Cu 25)    -58.2561         0.001535   
    719. D(Cu 24,Cu 28,Cu 22,Cu 23)     57.3154         0.001535   
    720. D(Cu 27,Cu 28,Cu 26,O   6)    -53.7530         0.002681   
    721. D(Cu 23,Cu 28,Cu 22,Cu 27)    165.8252         0.001535   
    722. D(Cu 23,Cu 28,Cu 22,Cu 26)     77.6038         0.001535   
    723. D(Cu 23,Cu 28,Cu 22,Cu 25)   -115.5716         0.001535   
    724. D(Cu 29,Cu 28,Cu 26,O   6)   -168.5538         0.002681   
    725. D(Cu 23,Cu 28,Cu 22,Cu 24)    -57.3154         0.001535   
    726. D(Cu 29,Cu 28,Cu 27,Cu 26)    112.8076         0.002630   
    727. D(Cu 29,Cu 28,Cu 27,Cu 25)     -9.8143         0.002630   
    728. D(Cu 29,Cu 28,Cu 27,Cu 22)     53.2195         0.002630   
    729. D(Cu 29,Cu 28,Cu 27,C   4)   -163.7255         0.002630   
    730. D(Cu 29,Cu 28,Cu 27,C   1)    168.3771         0.002630   
    731. D(Cu 26,Cu 28,Cu 27,Cu 25)   -122.6218         0.002630   
    732. D(Cu 26,Cu 28,Cu 27,Cu 22)    -59.5881         0.002630   
    733. D(Cu 26,Cu 28,Cu 27,C   3)     10.7790         0.002630   
    734. D(Cu 26,Cu 28,Cu 27,C   1)     55.5696         0.002630   
    735. D(Cu 25,Cu 28,Cu 27,Cu 26)    122.6218         0.002630   
    736. D(Cu 25,Cu 28,Cu 27,C   4)   -153.9112         0.002630   
    737. D(Cu 25,Cu 28,Cu 27,C   3)    133.4008         0.002630   
    738. D(Cu 25,Cu 28,Cu 27,C   1)    178.1914         0.002630   
    739. D(Cu 24,Cu 28,Cu 27,Cu 26)     86.6468         0.002630   
    740. D(Cu 24,Cu 28,Cu 27,Cu 25)    -35.9750         0.002630   
    741. D(Cu 24,Cu 28,Cu 27,Cu 22)     27.0588         0.002630   
    742. D(Cu 24,Cu 28,Cu 27,C   4)    170.1138         0.002630   
    743. D(Cu 24,Cu 28,Cu 27,C   3)     97.4258         0.002630   
[...]
     46       0.040352  -0.080157  -0.000242   0.002793   0.000758  -0.000173
     47      -0.017991   0.035538   0.000285  -0.001262  -0.000346   0.000089
     48       0.049387  -0.005135  -0.002138  -0.000119   0.002487   0.000863
     49      -0.040370   0.002464   0.001410   0.000573  -0.002028  -0.000780
     50       0.073916  -0.005379  -0.002333   0.000511   0.001294  -0.000673
     51       0.001659  -0.001157  -0.000033   0.001525  -0.000407  -0.000135
     52      -0.024228  -0.004594  -0.003265   0.000847   0.002385  -0.001722
     53      -0.004441  -0.000939  -0.000459  -0.001150   0.001083  -0.000819
     54       0.669146  -0.006503  -0.004806  -0.025094  -0.012936  -0.000401
     55       0.251639  -0.002107  -0.001633  -0.015157  -0.004972   0.000262
     56       0.018359   0.000191   0.000031  -0.004333  -0.002096  -0.000271
     57       0.333338  -0.002162  -0.001259   0.003137  -0.010729  -0.007676
     58      -0.295626   0.002039   0.001268  -0.005377   0.012254   0.008340
     59       0.516149  -0.003523  -0.002154   0.003374  -0.012397  -0.011411
     60       0.014810  -0.353975  -0.000756   0.003207   0.000090  -0.000465
     61      -0.011135   0.251907   0.000396  -0.002949  -0.000242   0.000381
     62       0.009800  -0.230691  -0.000606   0.000865  -0.000452  -0.000300
     63       0.005103   0.167566   0.004269  -0.000797  -0.000355   0.000051
     64       0.023978   0.772896   0.025196  -0.003071  -0.001131   0.000183
     65      -0.010771  -0.340794  -0.011421   0.001379   0.000500  -0.000052
     66       0.000003  -0.000006  -0.000230   0.000011   0.000006  -0.000002
     67      -0.000002   0.000011  -0.000175  -0.000003  -0.000001   0.000002
     68       0.000001  -0.000004   0.000135   0.000000   0.000001   0.000002
     69      -0.000001   0.000003  -0.000072  -0.000001  -0.000000   0.000001
     70       0.000000  -0.000002   0.000047   0.000000  -0.000000  -0.000000
     71       0.000000   0.000000  -0.000011   0.000002  -0.000001  -0.000004
     72       0.000000  -0.000000   0.000024  -0.000001  -0.000001   0.000000
     73      -0.000000  -0.000000   0.000004  -0.000003   0.000001   0.000006
     74      -0.000000   0.000001  -0.000022   0.000001  -0.000001  -0.000002
     75      -0.000000   0.000001  -0.000008  -0.000000  -0.000000  -0.000000
     76       0.000000  -0.000001   0.000004  -0.000001   0.000000   0.000003
     77      -0.000000   0.000000  -0.000015  -0.000001  -0.000000   0.000002
     78      -0.000001   0.000003  -0.000104   0.000000   0.000001   0.000000
     79       0.000000   0.000001  -0.000014   0.000003  -0.000001  -0.000005
     80      -0.000000   0.000002  -0.000093   0.000001   0.000000   0.000000
     81      -0.000000   0.000000  -0.000000   0.000001   0.000001  -0.000001
     82       0.000001  -0.000001   0.000028   0.000001  -0.000001  -0.000003
     83      -0.000000  -0.000000   0.000003  -0.000003   0.000001   0.000006
     84       0.000000  -0.000000   0.000020  -0.000000   0.000000   0.000000
     85       0.000001  -0.000000   0.000001   0.000001  -0.000002  -0.000004
     86       0.000000  -0.000001   0.000026  -0.000000  -0.000001  -0.000000
     87      -0.000000   0.000001  -0.000023  -0.000000  -0.000000   0.000000
     88      -0.000000   0.000001  -0.000036  -0.000002  -0.000001   0.000002
     89       0.000000   0.000001  -0.000004   0.000002  -0.000002  -0.000004


-----------
IR SPECTRUM
-----------

 Mode   freq       eps      Int      T**2         TX        TY        TZ
       cm**-1   L/(mol*cm) km/mol    a.u.
----------------------------------------------------------------------------
  6:      8.20   0.002703   13.66  0.102840  ( 0.093987  0.126820  0.279148)
  7:     25.15   0.002228   11.26  0.027643  ( 0.076275 -0.097142  0.111303)
  8:     32.43   0.000750    3.79  0.007216  ( 0.025281  0.071662  0.037963)
  9:     35.99   0.001459    7.37  0.012649  ( 0.064794  0.021174  0.089456)
 10:     43.78   0.001366    6.90  0.009738  (-0.095648 -0.005274 -0.023691)
 11:     49.89   0.002995   15.14  0.018735  ( 0.123136 -0.055243  0.022819)
 12:     66.64   0.003285   16.60  0.015386  (-0.044923 -0.092280  0.069658)
 13:     71.69   0.000939    4.75  0.004087  ( 0.053535  0.032168 -0.013651)
 14:     77.47   0.000710    3.59  0.002858  ( 0.047097  0.025145 -0.002778)
 15:     90.38   0.001329    6.72  0.004590  ( 0.060663 -0.010492 -0.028284)
 16:     95.18   0.000387    1.96  0.001270  (-0.024772  0.019753  0.016329)
 17:    103.93   0.000442    2.23  0.001327  (-0.031618  0.005100 -0.017366)
 18:    111.78   0.000168    0.85  0.000470  (-0.013484 -0.014453  0.008900)
 19:    117.92   0.000850    4.30  0.002250  ( 0.044999  0.012979 -0.007533)
 20:    121.62   0.000072    0.36  0.000185  ( 0.006326 -0.011482  0.003581)
 21:    126.41   0.001138    5.75  0.002810  ( 0.047695 -0.002454  0.023013)
 22:    133.33   0.002703   13.66  0.006327  (-0.069084  0.035233  0.017680)
 23:    148.32   0.000004    0.02  0.000009  (-0.002716  0.000760  0.000777)
 24:    158.18   0.000572    2.89  0.001128  ( 0.028942 -0.012584 -0.011495)
 25:    165.73   0.003417   17.27  0.006434  ( 0.067209  0.030047 -0.031850)
 26:    166.88   0.000871    4.40  0.001630  ( 0.028695 -0.028380 -0.000843)
 27:    183.92   0.000407    2.06  0.000690  (-0.018035  0.015992  0.010462)
 28:    190.59   0.000153    0.78  0.000251  ( 0.011908  0.009437 -0.004515)
 29:    203.06   0.003187   16.11  0.004898  ( 0.057539 -0.022049  0.033179)
 30:    207.98   0.005001   25.27  0.007503  (-0.077051  0.029491  0.026389)
 31:    239.47   0.000329    1.66  0.000429  (-0.008726  0.004300  0.018278)
 32:    239.77   0.001702    8.60  0.002215  ( 0.041952 -0.008612 -0.019526)
 33:    242.61   0.000848    4.28  0.001090  (-0.009723  0.025643 -0.018392)
 34:    247.69   0.007280   36.79  0.009172  (-0.086480  0.023826 -0.033553)
 35:    263.40   0.000874    4.42  0.001036  (-0.006111  0.016855  0.026729)
 36:    308.29   0.001627    8.22  0.001647  (-0.028788  0.020393  0.020058)
 37:    338.66   0.005129   25.92  0.004726  (-0.028290  0.017091 -0.060282)
 38:    367.40   0.013373   67.58  0.011359  (-0.098054  0.039457  0.013692)
 39:    431.57   0.005781   29.22  0.004181  ( 0.051722 -0.021954  0.031992)
 40:    448.28   0.003384   17.10  0.002356  ( 0.041819 -0.020349 -0.013884)
 41:    494.77   0.015378   77.72  0.009699  ( 0.096983 -0.016171  0.005674)
 42:    512.96   0.002900   14.65  0.001764  (-0.037453  0.005867  0.018080)
 43:    520.84   0.006694   33.83  0.004011  (-0.010397  0.024048  0.057658)
 44:    592.48   0.002641   13.35  0.001391  ( 0.016855 -0.032454  0.007332)
 45:    627.59   0.002934   14.83  0.001459  (-0.012286 -0.012199 -0.034049)
 46:    696.24   0.005397   27.27  0.002419  (-0.047230 -0.012620  0.005376)
 47:    715.80   0.000158    0.80  0.000069  ( 0.005440 -0.004244 -0.004592)
 48:    783.97   0.014512   73.34  0.005777  ( 0.026317  0.025302  0.066662)
 49:    791.12   0.038071  192.39  0.015017  (-0.121097  0.018572 -0.002804)
 50:    817.56   0.001590    8.03  0.000607  ( 0.022039 -0.002531  0.010709)
 51:    846.49   0.008986   45.41  0.003313  ( 0.032548 -0.023739 -0.041108)
 52:    853.69   0.000491    2.48  0.000179  (-0.011778  0.006329  0.000788)
 53:    877.24   0.000296    1.49  0.000105  ( 0.006074 -0.000143  0.008261)
 54:    909.02   0.003006   15.19  0.001032  (-0.000212 -0.001334  0.032096)
 55:    937.83   0.003088   15.61  0.001028  (-0.006656 -0.024170  0.019977)
 56:    997.01   0.005670   28.65  0.001775  ( 0.024858 -0.033893 -0.002838)
 57:   1049.08   0.009899   50.02  0.002945  ( 0.042988  0.005180 -0.032707)
 58:   1067.40   0.005213   26.34  0.001524  ( 0.035633  0.009856  0.012533)
 59:   1101.67   0.011319   57.20  0.003206  (-0.041728 -0.034078  0.017427)
 60:   1137.45   0.007560   38.21  0.002074  ( 0.025385 -0.032593  0.019171)
 61:   1154.27   0.035342  178.61  0.009555  (-0.092534  0.018438 -0.025543)
 62:   1216.44   0.031834  160.88  0.008167  (-0.080910  0.029347 -0.027550)
 63:   1222.59   0.005798   29.30  0.001480  ( 0.023831  0.017426 -0.024666)
 64:   1253.82   0.001440    7.28  0.000358  ( 0.005057  0.017612 -0.004763)
 65:   1284.32   0.001502    7.59  0.000365  (-0.011919  0.006277 -0.013543)
 66:   1294.78   0.297654  1504.22  0.071739  (-0.263027 -0.001281 -0.050540)
 67:   1317.35   0.011583   58.53  0.002744  ( 0.048712 -0.006392  0.018169)
 68:   1336.53   0.006533   33.02  0.001525  (-0.024278 -0.027314  0.013782)
 69:   1350.83   0.006410   32.39  0.001481  (-0.032259  0.018305  0.010249)
 70:   1412.49   0.002924   14.77  0.000646  ( 0.011628 -0.008556 -0.020917)
 71:   1433.06   0.005669   28.65  0.001234  (-0.009714  0.020574  0.026773)
 72:   1438.43   0.001171    5.92  0.000254  (-0.009300  0.002490  0.012701)
 73:   1446.89   0.034925  176.49  0.007533  ( 0.029224 -0.079558 -0.018680)
 74:   1476.28   0.194686  983.86  0.041154  (-0.198690 -0.016944 -0.037266)
 75:   1534.30   0.003794   19.17  0.000772  ( 0.023368 -0.014065  0.005262)
 76:   1576.22   0.006360   32.14  0.001259  ( 0.007227 -0.010550  0.033101)
 77:   1587.42   0.006834   34.54  0.001344  (-0.006340  0.009406  0.034855)
 78:   1590.33   0.031529  159.33  0.006187  (-0.074343 -0.023773  0.009737)
 79:   2975.35   0.010895   55.06  0.001143  ( 0.028422  0.009483  0.015649)
 80:   3018.39   0.000876    4.42  0.000091  (-0.005061  0.007918  0.001484)
 81:   3030.19   0.006310   31.89  0.000650  ( 0.012873  0.018473 -0.011954)
 82:   3078.57   0.003721   18.80  0.000377  (-0.018568 -0.000563 -0.005661)
 83:   3083.12   0.004453   22.50  0.000451  (-0.004846 -0.019062  0.007993)
 84:   3084.66   0.004327   21.87  0.000438  (-0.020406 -0.001942 -0.004199)
 85:   3098.00   0.006538   33.04  0.000659  ( 0.010880 -0.019577  0.012528)
 86:   3123.90   0.582644  2944.44  0.058204  (-0.238605 -0.032907 -0.013721)
 87:   3284.41   0.033485  169.22  0.003182  (-0.053553 -0.013250  0.011748)
 88:   3385.89   0.039428  199.25  0.003634  (-0.057086  0.018591  0.005425)
 89:   3431.67   0.028340  143.22  0.002577  ( 0.005090  0.004385 -0.050319)

* The epsilon (eps) is given for a Dirac delta lineshape.
** The dipole moment derivative (T) already includes vibrational overlap.

The first frequency considered to be a vibration is 6
The total number of vibrations considered is 84


--------------------------
THERMOCHEMISTRY AT 298.15K
--------------------------

Temperature         ... 298.15 K
Pressure            ... 1.00 atm
Total Mass          ... 661.58 AMU

Throughout the following assumptions are being made:
  (1) The electronic state is orbitally nondegenerate
  (2) There are no thermally accessible electronically excited states
  (3) Hindered rotations indicated by low frequency modes are not
      treated as such but are treated as vibrations and this may
      cause some error
  (4) All equations used are the standard statistical mechanics
      equations for an ideal gas
  (5) All vibrations are strictly harmonic

freq.       8.20  E(vib)   ...       0.58 
freq.      25.15  E(vib)   ...       0.56 
freq.      32.43  E(vib)   ...       0.55 
freq.      35.99  E(vib)   ...       0.54 
freq.      43.78  E(vib)   ...       0.53 
freq.      49.89  E(vib)   ...       0.52 
freq.      66.64  E(vib)   ...       0.50 
freq.      71.69  E(vib)   ...       0.50 
freq.      77.47  E(vib)   ...       0.49 
freq.      90.38  E(vib)   ...       0.47 
freq.      95.18  E(vib)   ...       0.47 
freq.     103.93  E(vib)   ...       0.46 
freq.     111.78  E(vib)   ...       0.45 
freq.     117.92  E(vib)   ...       0.44 
freq.     121.62  E(vib)   ...       0.44 
freq.     126.41  E(vib)   ...       0.43 
freq.     133.33  E(vib)   ...       0.42 
freq.     148.32  E(vib)   ...       0.41 
freq.     158.18  E(vib)   ...       0.39 
freq.     165.73  E(vib)   ...       0.39 
freq.     166.88  E(vib)   ...       0.39 
freq.     183.92  E(vib)   ...       0.37 
freq.     190.59  E(vib)   ...       0.36 
freq.     203.06  E(vib)   ...       0.35 
freq.     207.98  E(vib)   ...       0.34 
freq.     239.47  E(vib)   ...       0.31 
freq.     239.77  E(vib)   ...       0.31 
freq.     242.61  E(vib)   ...       0.31 
freq.     247.69  E(vib)   ...       0.31 
freq.     263.40  E(vib)   ...       0.29 
freq.     308.29  E(vib)   ...       0.26 
freq.     338.66  E(vib)   ...       0.23 
freq.     367.40  E(vib)   ...       0.21 
freq.     431.57  E(vib)   ...       0.18 
freq.     448.28  E(vib)   ...       0.17 
freq.     494.77  E(vib)   ...       0.14 
freq.     512.96  E(vib)   ...       0.13 
freq.     520.84  E(vib)   ...       0.13 
freq.     592.48  E(vib)   ...       0.10 
freq.     627.59  E(vib)   ...       0.09 
freq.     696.24  E(vib)   ...       0.07 
freq.     715.80  E(vib)   ...       0.07 
freq.     783.97  E(vib)   ...       0.05 
freq.     791.12  E(vib)   ...       0.05 
freq.     817.56  E(vib)   ...       0.05 
freq.     846.49  E(vib)   ...       0.04 
freq.     853.69  E(vib)   ...       0.04 
freq.     877.24  E(vib)   ...       0.04 
freq.     909.02  E(vib)   ...       0.03 
freq.     937.83  E(vib)   ...       0.03 
freq.     997.01  E(vib)   ...       0.02 
freq.    1049.08  E(vib)   ...       0.02 
freq.    1067.40  E(vib)   ...       0.02 
freq.    1101.67  E(vib)   ...       0.02 
freq.    1137.45  E(vib)   ...       0.01 
freq.    1154.27  E(vib)   ...       0.01 
freq.    1216.44  E(vib)   ...       0.01 
freq.    1222.59  E(vib)   ...       0.01 
freq.    1253.82  E(vib)   ...       0.01 
freq.    1284.32  E(vib)   ...       0.01 
freq.    1294.78  E(vib)   ...       0.01 
freq.    1317.35  E(vib)   ...       0.01 
freq.    1336.53  E(vib)   ...       0.01 
freq.    1350.83  E(vib)   ...       0.01 
freq.    1412.49  E(vib)   ...       0.00 
freq.    1433.06  E(vib)   ...       0.00 
freq.    1438.43  E(vib)   ...       0.00 
freq.    1446.89  E(vib)   ...       0.00 
freq.    1476.28  E(vib)   ...       0.00 
freq.    1534.30  E(vib)   ...       0.00 
freq.    1576.22  E(vib)   ...       0.00 
freq.    1587.42  E(vib)   ...       0.00 
freq.    1590.33  E(vib)   ...       0.00 
freq.    2975.35  E(vib)   ...       0.00 
freq.    3018.39  E(vib)   ...       0.00 
freq.    3030.19  E(vib)   ...       0.00 
freq.    3078.57  E(vib)   ...       0.00 
freq.    3083.12  E(vib)   ...       0.00 
freq.    3084.66  E(vib)   ...       0.00 
freq.    3098.00  E(vib)   ...       0.00 
freq.    3123.90  E(vib)   ...       0.00 
freq.    3284.41  E(vib)   ...       0.00 
freq.    3385.89  E(vib)   ...       0.00 
freq.    3431.67  E(vib)   ...       0.00 

------------
INNER ENERGY
------------

The inner energy is: U= E(el) + E(ZPE) + E(vib) + E(rot) + E(trans)
    E(el)   - is the total energy from the electronic structure calculation
              = E(kin-el) + E(nuc-el) + E(el-el) + E(nuc-nuc)
    E(ZPE)  - the the zero temperature vibrational energy from the frequency calculation
    E(vib)  - the the finite temperature correction to E(ZPE) due to population
              of excited vibrational states
    E(rot)  - is the rotational thermal energy
    E(trans)- is the translational thermal energy

Summary of contributions to the inner energy U:
Electronic energy                ... -13638.90857276 Eh
Zero point energy                ...      0.18615889 Eh     116.82 kcal/mol
Thermal vibrational correction   ...      0.02420797 Eh      15.19 kcal/mol
Thermal rotational correction    ...      0.00141627 Eh       0.89 kcal/mol
Thermal translational correction ...      0.00141627 Eh       0.89 kcal/mol
-----------------------------------------------------------------------
Total thermal energy                 -13638.69537335 Eh


Summary of corrections to the electronic energy:
(perhaps to be used in another calculation)
Total thermal correction                  0.02704052 Eh      16.97 kcal/mol
Non-thermal (ZPE) correction              0.18615889 Eh     116.82 kcal/mol
-----------------------------------------------------------------------
Total correction                          0.21319941 Eh     133.78 kcal/mol


--------
ENTHALPY
--------

The enthalpy is H = U + kB*T
                kB is Boltzmann's constant
Total free energy                 ... -13638.69537335 Eh 
Thermal Enthalpy correction       ...      0.00094421 Eh       0.59 kcal/mol
-----------------------------------------------------------------------
Total Enthalpy                    ... -13638.69442914 Eh


Note: Only C1 symmetry has been detected, increase convergence thresholds 
      if your molecule has a higher symmetry. Symmetry factor of 1.0 is   
      used for the rotational entropy correction. 
 

Note: Rotational entropy computed according to Herzberg 
Infrared and Raman Spectra, Chapter V,1, Van Nostrand Reinhold, 1945 
Point Group:  C1, Symmetry Number:   1  
Rotational constants in cm-1:     0.010160     0.002405     0.002291 

Vibrational entropy computed according to the QRRHO of S. Grimme
Chem.Eur.J. 2012 18 9955


-------
ENTROPY
-------

The entropy contributions are T*S = T*(S(el)+S(vib)+S(rot)+S(trans))
     S(el)   - electronic entropy
     S(vib)  - vibrational entropy
     S(rot)  - rotational entropy
     S(trans)- translational entropy
The entropies will be listed as multiplied by the temperature to get
units of energy

Electronic entropy                ...      0.00000000 Eh      0.00 kcal/mol
Vibrational entropy               ...      0.04639656 Eh     29.11 kcal/mol
Rotational entropy                ...      0.01739398 Eh     10.91 kcal/mol
Translational entropy             ...      0.02154723 Eh     13.52 kcal/mol
-----------------------------------------------------------------------
Final entropy term                ...      0.08533777 Eh     53.55 kcal/mol

In case the symmetry of your molecule has not been determined correctly
or in case you have a reason to use a different symmetry number we print 
out the resulting rotational entropy values for sn=1,12 :
 --------------------------------------------------------
|  sn= 1 | S(rot)=       0.01739398 Eh     10.91 kcal/mol|
|  sn= 2 | S(rot)=       0.01673952 Eh     10.50 kcal/mol|
|  sn= 3 | S(rot)=       0.01635669 Eh     10.26 kcal/mol|
|  sn= 4 | S(rot)=       0.01608507 Eh     10.09 kcal/mol|
|  sn= 5 | S(rot)=       0.01587438 Eh      9.96 kcal/mol|
|  sn= 6 | S(rot)=       0.01570223 Eh      9.85 kcal/mol|
|  sn= 7 | S(rot)=       0.01555669 Eh      9.76 kcal/mol|
|  sn= 8 | S(rot)=       0.01543061 Eh      9.68 kcal/mol|
|  sn= 9 | S(rot)=       0.01531940 Eh      9.61 kcal/mol|
|  sn=10 | S(rot)=       0.01521992 Eh      9.55 kcal/mol|
|  sn=11 | S(rot)=       0.01512993 Eh      9.49 kcal/mol|
|  sn=12 | S(rot)=       0.01504778 Eh      9.44 kcal/mol|
 --------------------------------------------------------


-------------------
GIBBS FREE ENERGY
-------------------

The Gibbs free energy is G = H - T*S

Total enthalpy                    ... -13638.69442914 Eh 
Total entropy correction          ...     -0.08533777 Eh    -53.55 kcal/mol
-----------------------------------------------------------------------
Final Gibbs free energy         ... -13638.77976691 Eh

For completeness - the Gibbs free energy minus the electronic energy
G-E(el)                           ...      0.12880585 Eh     80.83 kcal/mol


No protocol specified

Timings for individual modules:

Sum of individual times         ...     4808.381 sec (=  80.140 min)
GTO integral calculation        ...        8.665 sec (=   0.144 min)   0.2 %
SCF iterations                  ...      160.404 sec (=   2.673 min)   3.3 %
SCF Gradient evaluation         ...       32.772 sec (=   0.546 min)   0.7 %
Geometry relaxation             ...        0.862 sec (=   0.014 min)   0.0 %
Numerical frequency calculation ...     4605.679 sec (=  76.761 min)  95.8 %



                             ****ORCA TERMINATED NORMALLY****
TOTAL RUN TIME: 0 days 6 hours 59 minutes 38 seconds 982 msec
