
                                 *****************
                                 * O   R   C   A *
                                 *****************

                                            #,                                       
                                            ###                                      
                                            ####                                     
                                            #####                                    
                                            ######                                   
                                           ########,                                 
                                     ,,################,,,,,                         
                               ,,#################################,,                 
                          ,,##########################################,,             
                       ,#########################################, ''#####,          
                    ,#############################################,,   '####,        
                  ,##################################################,,,,####,       
                ,###########''''           ''''###############################       
              ,#####''   ,,,,##########,,,,          '''####'''          '####       
            ,##' ,,,,###########################,,,                        '##       
           ' ,,###''''                  '''############,,,                           
         ,,##''                                '''############,,,,        ,,,,,,###''
      ,#''                                            '''#######################'''  
     '                                                          ''''####''''         
             ,#######,   #######,   ,#######,      ##                                
            ,#'     '#,  ##    ##  ,#'     '#,    #''#        ######   ,####,        
            ##       ##  ##   ,#'  ##            #'  '#       #        #'  '#        
            ##       ##  #######   ##           ,######,      #####,   #    #        
            '#,     ,#'  ##    ##  '#,     ,#' ,#      #,         ##   #,  ,#        
             '#######'   ##     ##  '#######'  #'      '#     #####' # '####'        



                  #######################################################
                  #                        -***-                        #
                  #          Department of theory and spectroscopy      #
                  #    Directorship and core code : Frank Neese         #
                  #        Max Planck Institute fuer Kohlenforschung    #
                  #                Kaiser Wilhelm Platz 1               #
                  #                 D-45470 Muelheim/Ruhr               #
                  #                      Germany                        #
                  #                                                     #
                  #                  All rights reserved                #
                  #                        -***-                        #
                  #######################################################


                         Program Version 5.0.1 -  RELEASE  -


 With contributions from (in alphabetic order):
   Daniel Aravena         : Magnetic Suceptibility
   Michael Atanasov       : Ab Initio Ligand Field Theory (pilot matlab implementation)
   Alexander A. Auer      : GIAO ZORA, VPT2 properties, NMR spectrum
   Ute Becker             : Parallelization
   Giovanni Bistoni       : ED, misc. LED, open-shell LED, HFLD
   Martin Brehm           : Molecular dynamics
   Dmytro Bykov           : SCF Hessian
   Vijay G. Chilkuri      : MRCI spin determinant printing, contributions to CSF-ICE
   Dipayan Datta          : RHF DLPNO-CCSD density
   Achintya Kumar Dutta   : EOM-CC, STEOM-CC
   Dmitry Ganyushin       : Spin-Orbit,Spin-Spin,Magnetic field MRCI
   Miquel Garcia          : C-PCM and meta-GGA Hessian, CC/C-PCM, Gaussian charge scheme
   Yang Guo               : DLPNO-NEVPT2, F12-NEVPT2, CIM, IAO-localization
   Andreas Hansen         : Spin unrestricted coupled pair/coupled cluster methods
   Benjamin Helmich-Paris : MC-RPA, TRAH-SCF, COSX integrals
   Lee Huntington         : MR-EOM, pCC
   Robert Izsak           : Overlap fitted RIJCOSX, COSX-SCS-MP3, EOM
   Marcus Kettner         : VPT2
   Christian Kollmar      : KDIIS, OOCD, Brueckner-CCSD(T), CCSD density, CASPT2, CASPT2-K
   Simone Kossmann        : Meta GGA functionals, TD-DFT gradient, OOMP2, MP2 Hessian
   Martin Krupicka        : Initial AUTO-CI
   Lucas Lang             : DCDCAS
   Marvin Lechner         : AUTO-CI (C++ implementation), FIC-MRCC
   Dagmar Lenk            : GEPOL surface, SMD
   Dimitrios Liakos       : Extrapolation schemes; Compound Job, initial MDCI parallelization
   Dimitrios Manganas     : Further ROCIS development; embedding schemes
   Dimitrios Pantazis     : SARC Basis sets
   Anastasios Papadopoulos: AUTO-CI, single reference methods and gradients
   Taras Petrenko         : DFT Hessian,TD-DFT gradient, ASA, ECA, R-Raman, ABS, FL, XAS/XES, NRVS
   Peter Pinski           : DLPNO-MP2, DLPNO-MP2 Gradient
   Christoph Reimann      : Effective Core Potentials
   Marius Retegan         : Local ZFS, SOC
   Christoph Riplinger    : Optimizer, TS searches, QM/MM, DLPNO-CCSD(T), (RO)-DLPNO pert. Triples
   Tobias Risthaus        : Range-separated hybrids, TD-DFT gradient, RPA, STAB
   Michael Roemelt        : Original ROCIS implementation
   Masaaki Saitow         : Open-shell DLPNO-CCSD energy and density
   Barbara Sandhoefer     : DKH picture change effects
   Avijit Sen             : IP-ROCIS
   Kantharuban Sivalingam : CASSCF convergence, NEVPT2, FIC-MRCI
   Bernardo de Souza      : ESD, SOC TD-DFT
   Georgi Stoychev        : AutoAux, RI-MP2 NMR, DLPNO-MP2 response
   Willem Van den Heuvel  : Paramagnetic NMR
   Boris Wezisla          : Elementary symmetry handling
   Frank Wennmohs         : Technical directorship


 We gratefully acknowledge several colleagues who have allowed us to
 interface, adapt or use parts of their codes:
   Stefan Grimme, W. Hujo, H. Kruse, P. Pracht,  : VdW corrections, initial TS optimization,
                  C. Bannwarth, S. Ehlert          DFT functionals, gCP, sTDA/sTD-DF
   Ed Valeev, F. Pavosevic, A. Kumar             : LibInt (2-el integral package), F12 methods
   Garnet Chan, S. Sharma, J. Yang, R. Olivares  : DMRG
   Ulf Ekstrom                                   : XCFun DFT Library
   Mihaly Kallay                                 : mrcc  (arbitrary order and MRCC methods)
   Jiri Pittner, Ondrej Demel                    : Mk-CCSD
   Frank Weinhold                                : gennbo (NPA and NBO analysis)
   Christopher J. Cramer and Donald G. Truhlar   : smd solvation model
   Lars Goerigk                                  : TD-DFT with DH, B97 family of functionals
   V. Asgeirsson, H. Jonsson                     : NEB implementation
   FAccTs GmbH                                   : IRC, NEB, NEB-TS, DLPNO-Multilevel, CI-OPT
                                                   MM, QMMM, 2- and 3-layer-ONIOM, Crystal-QMMM,
                                                   LR-CPCM, SF, NACMEs, symmetry and pop. for TD-DFT,
                                                   nearIR, NL-DFT gradient (VV10), updates on ESD,
                                                   ML-optimized integration grids
   S Lehtola, MJT Oliveira, MAL Marques          : LibXC Library
   Liviu Ungur et al                             : ANISO software


 Your calculation uses the libint2 library for the computation of 2-el integrals
 For citations please refer to: http://libint.valeyev.net

 Your ORCA version has been built with support for libXC version: 5.1.0
 For citations please refer to: https://tddft.org/programs/libxc/

 This ORCA versions uses:
   CBLAS   interface :  Fast vector & matrix operations
   LAPACKE interface :  Fast linear algebra routines
   SCALAPACK package :  Parallel linear algebra routines
   Shared memory     :  Shared parallel matrices
   BLAS/LAPACK       :  OpenBLAS 0.3.15  USE64BITINT DYNAMIC_ARCH NO_AFFINITY Haswell SINGLE_THREADED
        Core in use  :  Haswell
   Copyright (c) 2011-2014, The OpenBLAS Project


Your calculation utilizes the atom-pairwise dispersion correction
with the Becke-Johnson damping scheme (D3BJ)
Cite in your paper:
S.Grimme, S.Ehrlich, L.Goerigk, J Comput Chem, (2011), 32, 1456–1465 
S.Grimme, J.Antony, S.Ehrlich and H.Krieg, J.Chem.Phys., 132, (2010), 154104 
   

================================================================================

----- Orbital basis set information -----
Your calculation utilizes the basis: def2-TZVP
   F. Weigend and R. Ahlrichs, Phys. Chem. Chem. Phys. 7, 3297 (2005).

----- AuxJ basis set information -----
Your calculation utilizes the auxiliary basis: def2/J
   F. Weigend, Phys. Chem. Chem. Phys. 8, 1057 (2006).

================================================================================
                                        WARNINGS
                       Please study these warnings very carefully!
================================================================================


WARNING: your system is open-shell and RHF/RKS was chosen
  ===> : WILL SWITCH to UHF/UKS


INFO   : the flag for use of the SHARK integral package has been found!

Your calculation utilizes the atom-pairwise dispersion correction
with the Becke-Johnson damping scheme (D3BJ)
Cite in your paper:
S.Grimme, S.Ehrlich, L.Goerigk, J Comput Chem, (2011), 32, 1456–1465 
S.Grimme, J.Antony, S.Ehrlich and H.Krieg, J.Chem.Phys., 132, (2010), 154104 
   

================================================================================

----- Orbital basis set information -----
Your calculation utilizes the basis: def2-TZVP
   F. Weigend and R. Ahlrichs, Phys. Chem. Chem. Phys. 7, 3297 (2005).

----- AuxJ basis set information -----
Your calculation utilizes the auxiliary basis: def2/J
   F. Weigend, Phys. Chem. Chem. Phys. 8, 1057 (2006).

================================================================================
                                        WARNINGS
                       Please study these warnings very carefully!
================================================================================


WARNING: MOInp is set but Guess=PModel. MOInp will be ignored!
         To read the initial guess from a file you must also specify
         'MORead' in the simple input or 'Guess MORead' in the %scf block


INFO   : the flag for use of the SHARK integral package has been found!

Your calculation utilizes the atom-pairwise dispersion correction
with the Becke-Johnson damping scheme (D3BJ)
Cite in your paper:
S.Grimme, S.Ehrlich, L.Goerigk, J Comput Chem, (2011), 32, 1456–1465 
S.Grimme, J.Antony, S.Ehrlich and H.Krieg, J.Chem.Phys., 132, (2010), 154104 
   

================================================================================

----- Orbital basis set information -----
Your calculation utilizes the basis: def2-TZVP
   F. Weigend and R. Ahlrichs, Phys. Chem. Chem. Phys. 7, 3297 (2005).

----- AuxJ basis set information -----
Your calculation utilizes the auxiliary basis: def2/J
   F. Weigend, Phys. Chem. Chem. Phys. 8, 1057 (2006).

================================================================================
                                        WARNINGS
                       Please study these warnings very carefully!
================================================================================


WARNING: MOInp is set but Guess=PModel. MOInp will be ignored!
         To read the initial guess from a file you must also specify
         'MORead' in the simple input or 'Guess MORead' in the %scf block


INFO   : the flag for use of the SHARK integral package has been found!

Your calculation utilizes the atom-pairwise dispersion correction
with the Becke-Johnson damping scheme (D3BJ)
Cite in your paper:
S.Grimme, S.Ehrlich, L.Goerigk, J Comput Chem, (2011), 32, 1456–1465 
S.Grimme, J.Antony, S.Ehrlich and H.Krieg, J.Chem.Phys., 132, (2010), 154104 
   

================================================================================

----- Orbital basis set information -----
Your calculation utilizes the basis: def2-TZVP
   F. Weigend and R. Ahlrichs, Phys. Chem. Chem. Phys. 7, 3297 (2005).

----- AuxJ basis set information -----
Your calculation utilizes the auxiliary basis: def2/J
   F. Weigend, Phys. Chem. Chem. Phys. 8, 1057 (2006).

================================================================================
                                        WARNINGS
                       Please study these warnings very carefully!
================================================================================


WARNING: MOInp is set but Guess=PModel. MOInp will be ignored!
         To read the initial guess from a file you must also specify
         'MORead' in the simple input or 'Guess MORead' in the %scf block


INFO   : the flag for use of the SHARK integral package has been found!

Your calculation utilizes the atom-pairwise dispersion correction
with the Becke-Johnson damping scheme (D3BJ)
Cite in your paper:
S.Grimme, S.Ehrlich, L.Goerigk, J Comput Chem, (2011), 32, 1456–1465 
S.Grimme, J.Antony, S.Ehrlich and H.Krieg, J.Chem.Phys., 132, (2010), 154104 
   

================================================================================

----- Orbital basis set information -----
Your calculation utilizes the basis: def2-TZVP
   F. Weigend and R. Ahlrichs, Phys. Chem. Chem. Phys. 7, 3297 (2005).

----- AuxJ basis set information -----
Your calculation utilizes the auxiliary basis: def2/J
   F. Weigend, Phys. Chem. Chem. Phys. 8, 1057 (2006).

================================================================================
                                        WARNINGS
                       Please study these warnings very carefully!
================================================================================


WARNING: MOInp is set but Guess=PModel. MOInp will be ignored!
         To read the initial guess from a file you must also specify
         'MORead' in the simple input or 'Guess MORead' in the %scf block


INFO   : the flag for use of the SHARK integral package has been found!

================================================================================
                                       INPUT FILE
================================================================================
NAME = ex.inp
|  1> ! PBE D3 def2-TZVP opt PModel
|  2> %pal nprocs=8 end
|  3> %geom maxiter=75 end
|  4> *xyz 0 2
|  5> 6       -0.074381000     -1.017724000     -0.365733000
|  6> 6       -1.104295000      1.582582000     -0.145174000
|  7> 6       -1.404297000     -0.807838000     -0.028468000
|  8> 6        0.764127000      0.082008000     -0.598285000
|  9> 6        0.237318000      1.380673000     -0.485702000
| 10> 6       -1.918680000      0.480698000      0.082127000
| 11> 8       -3.237740000      0.612654000      0.417989000
| 12> 8       -2.212182000     -1.885801000      0.196219000
| 13> 6        2.216363000     -0.129253000     -0.958825000
| 14> 6        3.082353000     -0.623390000      0.210232000
| 15> 7        3.177358000      0.336596000      1.311590000
| 16> 1        0.300199000     -2.034529000     -0.445753000
| 17> 1       -1.486399000      2.594964000     -0.065194000
| 18> 1        0.872918000      2.245792000     -0.664027000
| 19> 1       -3.446612000      1.561874000      0.452057000
| 20> 1       -3.082382000     -1.496456000      0.413871000
| 21> 1        2.639984000      0.798710000     -1.364264000
| 22> 1        2.266265000     -0.859784000     -1.776551000
| 23> 1        2.697246000     -1.571127000      0.602530000
| 24> 1        4.094823000     -0.820415000     -0.159063000
| 25> 1        2.243593000      0.479729000      1.700370000
| 26> 1        3.467199000      1.243717000      0.950192000
| 27> 29       4.764860235     -0.646749109      1.331403296
| 28> *
| 29> 
| 30> $new_job
| 31> %pal nprocs=8 end
| 32> %geom maxiter=75 end
| 33> ! PBE D3 def2-TZVP opt PModel NOAUTOSTART
| 34> *xyz 0 2
| 35> 6       -0.046652000     -0.911071000     -0.532758000
| 36> 6       -1.135871000      1.590984000      0.120364000
| 37> 6       -1.381293000     -0.790692000     -0.171165000
| 38> 6        0.766734000      0.230357000     -0.570469000
| 39> 6        0.210423000      1.479188000     -0.241853000
| 40> 6       -1.925139000      0.448711000      0.153453000
| 41> 8       -3.247017000      0.492122000      0.501091000
| 42> 8       -2.163985000     -1.909307000     -0.134001000
| 43> 6        2.225367000      0.115784000     -0.948125000
| 44> 6        3.187017000      0.283614000      0.238177000
| 45> 7        3.056643000     -0.765978000      1.249695000
| 46> 1        0.350146000     -1.891510000     -0.780768000
| 47> 1       -1.540199000      2.566466000      0.369856000
| 48> 1        0.828192000      2.374941000     -0.266569000
| 49> 1       -3.475863000      1.416560000      0.698663000
| 50> 1       -3.044027000     -1.580947000      0.138402000
| 51> 1        2.448055000      0.881624000     -1.702239000
| 52> 1        2.410633000     -0.847709000     -1.440388000
| 53> 1        4.216463000      0.270880000     -0.136514000
| 54> 1        3.036819000      1.255781000      0.720669000
| 55> 1        3.152908000     -1.679303000      0.806926000
| 56> 1        2.104875000     -0.748710000      1.621641000
| 57> 29       4.649919579     -0.421364793      2.872258244
| 58> *
| 59> 
| 60> $new_job
| 61> %pal nprocs=8 end
| 62> %geom maxiter=75 end
| 63> ! PBE D3 def2-TZVP opt PModel NOAUTOSTART
| 64> *xyz 0 2
| 65> 6       -0.096290000     -0.980680000     -0.380034000
| 66> 6       -1.093748000      1.628719000     -0.119334000
| 67> 6       -1.426063000     -0.761674000     -0.034967000
| 68> 6        0.753785000      0.116531000     -0.597470000
| 69> 6        0.242883000      1.419760000     -0.465428000
| 70> 6       -1.916883000      0.534394000      0.093448000
| 71> 8       -3.223537000      0.738544000      0.432986000
| 72> 8       -2.294151000     -1.794580000      0.190192000
| 73> 6        2.204965000     -0.098569000     -0.963399000
| 74> 6        3.061932000     -0.647382000      0.187695000
| 75> 7        3.161017000      0.263425000      1.328196000
| 76> 1        0.289586000     -1.990431000     -0.482505000
| 77> 1       -1.488408000      2.634977000     -0.017445000
| 78> 1        0.883530000      2.283311000     -0.631270000
| 79> 1       -3.593589000     -0.161702000      0.527334000
| 80> 1       -1.807899000     -2.628635000      0.073169000
| 81> 1        2.641810000      0.838598000     -1.331885000
| 82> 1        2.246887000     -0.798253000     -1.808050000
| 83> 1        2.665647000     -1.606474000      0.539090000
| 84> 1        4.073806000     -0.840366000     -0.185405000
| 85> 1        2.224215000      0.433815000      1.699234000
| 86> 1        3.495319000      1.172886000      1.011874000
| 87> 29       4.569157802     -0.672654747      2.887328512
| 88> *
| 89> 
| 90> $new_job
| 91> %pal nprocs=8 end
| 92> %geom maxiter=75 end
| 93> ! PBE D3 def2-TZVP opt PModel NOAUTOSTART
| 94> *xyz 0 2
| 95> 6       -0.097842000     -0.920923000     -0.507016000
| 96> 6       -1.088360000      1.633502000      0.099122000
| 97> 6       -1.428703000     -0.744990000     -0.141290000
| 98> 6        0.756518000      0.192278000     -0.571721000
| 99> 6        0.248624000      1.467925000     -0.268154000
|100> 6       -1.915788000      0.523640000      0.159826000
|101> 8       -3.223202000      0.684992000      0.518892000
|102> 8       -2.301868000     -1.795143000     -0.062972000
|103> 6        2.207753000      0.023049000     -0.960862000
|104> 6        3.195356000      0.258187000      0.192596000
|105> 7        3.050100000     -0.699765000      1.289265000
|106> 1        0.284043000     -1.909754000     -0.741520000
|107> 1       -1.479477000      2.618504000      0.334658000
|108> 1        0.893223000      2.343263000     -0.316124000
|109> 1       -3.596815000     -0.218147000      0.490285000
|110> 1       -1.826082000     -2.604210000     -0.317039000
|111> 1        2.430202000      0.726552000     -1.773489000
|112> 1        2.368378000     -0.977823000     -1.382028000
|113> 1        4.216832000      0.180995000     -0.195948000
|114> 1        3.085180000      1.271284000      0.594843000
|115> 1        3.090981000     -1.649669000      0.924310000
|116> 1        2.118048000     -0.597443000      1.694836000
|117> 29       4.719302986     -0.315483855      2.824220827
|118> *
|119> 
|120> $new_job
|121> %pal nprocs=8 end
|122> %geom maxiter=75 end
|123> ! PBE D3 def2-TZVP opt PModel NOAUTOSTART
|124> *xyz 0 2
|125> 6       -0.049461000     -0.828565000     -0.561212000
|126> 6       -1.172466000      1.627940000      0.197374000
|127> 6       -1.385624000     -0.747650000     -0.184629000
|128> 6        0.742258000      0.331521000     -0.562141000
|129> 6        0.170509000      1.557196000     -0.178807000
|130> 6       -1.939028000      0.473028000      0.191172000
|131> 8       -3.251769000      0.541284000      0.560998000
|132> 8       -2.197998000     -1.848023000     -0.165013000
|133> 6        2.201740000      0.257709000     -0.950510000
|134> 6        3.155311000      0.222943000      0.252043000
|135> 7        3.032140000     -1.008935000      1.033705000
|136> 1        0.391890000     -1.778825000     -0.848292000
|137> 1       -1.615604000      2.574160000      0.491949000
|138> 1        0.769067000      2.465545000     -0.172506000
|139> 1       -3.575698000     -0.377350000      0.474120000
|140> 1       -1.673244000     -2.611967000     -0.460856000
|141> 1        2.440663000      1.130512000     -1.571924000
|142> 1        2.374118000     -0.616184000     -1.592177000
|143> 1        4.185601000      0.294398000     -0.113247000
|144> 1        2.980476000      1.084018000      0.907054000
|145> 1        2.091859000     -1.052374000      1.430225000
|146> 1        3.664593000     -0.960214000      1.832092000
|147> 29       3.491981327     -2.809395896     -0.321612865
|148> *
|149> 
|150>                          ****END OF INPUT****
================================================================================


                 $$$$$$$$$$$$$$$$$$$$$$$$$$$$$$$$$$$$$$$$$$$$$$ 
                 $ THERE ARE  5 JOBS TO BE PROCESSED THIS RUN $
                 $$$$$$$$$$$$$$$$$$$$$$$$$$$$$$$$$$$$$$$$$$$$$$ 




                 $$$$$$$$$$$$$$$$  JOB NUMBER  1 $$$$$$$$$$$$$$


                       *****************************
                       * Geometry Optimization Run *
                       *****************************

Geometry optimization settings:
Update method            Update   .... BFGS
Choice of coordinates    CoordSys .... Z-matrix Internals
Initial Hessian          InHess   .... Almoef's Model

Convergence Tolerances:
Energy Change            TolE     ....  5.0000e-06 Eh
Max. Gradient            TolMAXG  ....  3.0000e-04 Eh/bohr
RMS Gradient             TolRMSG  ....  1.0000e-04 Eh/bohr
Max. Displacement        TolMAXD  ....  4.0000e-03 bohr
RMS Displacement         TolRMSD  ....  2.0000e-03 bohr
Strict Convergence                ....  False
------------------------------------------------------------------------------
                        ORCA OPTIMIZATION COORDINATE SETUP
------------------------------------------------------------------------------

The optimization will be done in new redundant internal coordinates
Making redundant internal coordinates   ...  (new redundants) done
Evaluating the initial hessian          ...  (Almloef) done
Evaluating the coordinates              ...  done
Calculating the B-matrix                .... done
Calculating the G-matrix                .... done
Diagonalizing the G-matrix              .... done
Small eigenvalue found = 1.673e-02
Small eigenvalue found = 2.754e-02
The first mode is                       ....   80
The number of degrees of freedom        ....   63

    -----------------------------------------------------------------
                    Redundant Internal Coordinates


    -----------------------------------------------------------------
         Definition                    Initial Value    Approx d2E/dq
    -----------------------------------------------------------------
      1. B(C   2,C   0)                  1.3880         0.629460   
      2. B(C   3,C   0)                  1.4024         0.597082   
      3. B(C   4,C   3)                  1.4060         0.589210   
      4. B(C   4,C   1)                  1.3988         0.604913   
      5. B(C   5,C   2)                  1.3918         0.620647   
      6. B(C   5,C   1)                  1.3889         0.627331   
      7. B(O   6,C   5)                  1.3675         0.607753   
      8. B(O   7,C   2)                  1.3657         0.611825   
      9. B(C   8,C   3)                  1.5112         0.400343   
     10. B(C   9,C   8)                  1.5365         0.364772   
     11. B(N  10,C   9)                  1.4641         0.426240   
     12. B(H  11,C   0)                  1.0866         0.364684   
     13. B(H  12,C   1)                  1.0850         0.366718   
     14. B(H  13,C   4)                  1.0882         0.362465   
     15. B(H  14,O   6)                  0.9725         0.496572   
     16. B(H  15,O   7)                  0.9779         0.486937   
     17. B(H  16,C   8)                  1.0977         0.350053   
     18. B(H  17,C   8)                  1.0977         0.350117   
     19. B(H  18,C   9)                  1.0956         0.352725   
     20. B(H  19,C   9)                  1.0956         0.352795   
     21. B(H  20,N  10)                  1.0215         0.414740   
     22. B(H  21,N  10)                  1.0186         0.419297   
     23. B(Cu 22,H  19)                  1.6434         0.477214   
     24. B(Cu 22,N  10)                  1.8675         0.979926   
     25. B(Cu 22,C   9)                  2.0220         0.620269   
     26. A(C   2,C   0,C   3)          119.6452         0.432312   
     27. A(C   3,C   0,H  11)          121.0323         0.351419   
     28. A(C   2,C   0,H  11)          119.3225         0.354574   
     29. A(C   5,C   1,H  12)          121.4445         0.354705   
     30. A(C   4,C   1,H  12)          119.3656         0.352525   
     31. A(C   4,C   1,C   5)          119.1899         0.433062   
     32. A(C   0,C   2,C   5)          120.8921         0.435332   
     33. A(C   0,C   2,O   7)          119.1714         0.431371   
     34. A(C   5,C   2,O   7)          119.9365         0.430281   
     35. A(C   4,C   3,C   8)          120.5521         0.397959   
     36. A(C   0,C   3,C   4)          119.1460         0.427215   
     37. A(C   0,C   3,C   8)          120.3013         0.398888   
     38. A(C   1,C   4,C   3)          120.8104         0.428214   
     39. A(C   3,C   4,H  13)          120.1552         0.350271   
     40. A(C   1,C   4,H  13)          119.0344         0.351831   
     41. A(C   1,C   5,O   6)          121.9523         0.430592   
     42. A(C   1,C   5,C   2)          120.3164         0.435067   
     43. A(C   2,C   5,O   6)          117.7313         0.429765   
     44. A(C   5,O   6,H  14)          108.0558         0.365950   
     45. A(C   2,O   7,H  15)          104.4047         0.365141   
     46. A(C   3,C   8,C   9)          113.8954         0.366183   
     47. A(C   3,C   8,H  17)          108.3290         0.326518   
     48. A(C   9,C   8,H  16)          109.5962         0.321558   
     49. A(C   3,C   8,H  16)          109.9260         0.326508   
     50. A(C   9,C   8,H  17)          109.0967         0.321568   
     51. A(H  16,C   8,H  17)          105.6596         0.288279   
     52. A(C   8,C   9,H  19)          108.7976         0.321969   
     53. A(N  10,C   9,H  18)          108.7015         0.328331   
     54. A(C   8,C   9,H  18)          110.6411         0.321959   
     55. A(N  10,C   9,H  19)          108.1504         0.328341   
     56. A(C   8,C   9,N  10)          113.4568         0.367830   
     57. A(H  19,C   9,Cu 22)           54.2565         0.392415   
     58. A(H  18,C   9,Cu 22)           94.8155         0.392401   
     59. A(N  10,C   9,Cu 22)           62.3847         0.452143   
     60. A(C   8,C   9,Cu 22)          153.4566         0.442474   
     61. A(H  18,C   9,H  19)          106.8556         0.288967   
     62. A(H  21,N  10,Cu 22)          103.3451         0.432823   
     63. A(H  20,N  10,Cu 22)          147.8618         0.431974   
     64. A(C   9,N  10,Cu 22)           73.6136         0.489398   
     65. A(H  20,N  10,H  21)          105.6854         0.299703   
     66. A(C   9,N  10,H  21)          109.6031         0.334981   
     67. A(C   9,N  10,H  20)          108.5931         0.334374   
     68. A(C   9,H  19,Cu 22)           92.9849         0.348342   
     69. A(N  10,Cu 22,H  19)           72.5079         0.522857   
     70. A(C   9,Cu 22,H  19)           32.7585         0.482489   
     71. A(C   9,Cu 22,N  10)           44.0017         0.596587   
     72. D(O   7,C   2,C   0,H  11)      0.0448         0.027469   
     73. D(C   5,C   2,C   0,C   3)      0.0160         0.027469   
     74. D(C   5,C   2,C   0,H  11)   -179.9547         0.027469   
     75. D(O   7,C   2,C   0,C   3)   -179.9846         0.027469   
     76. D(C   8,C   3,C   0,H  11)     -0.3716         0.024564   
     77. D(C   4,C   3,C   0,H  11)    179.9080         0.024564   
     78. D(C   4,C   3,C   0,C   2)     -0.0621         0.024564   
     79. D(C   8,C   3,C   0,C   2)    179.6582         0.024564   
     80. D(H  13,C   4,C   1,H  12)      0.0066         0.025248   
     81. D(C   1,C   4,C   3,C   0)      0.0690         0.023888   
     82. D(C   1,C   4,C   3,C   8)   -179.6506         0.023888   
     83. D(C   3,C   4,C   1,H  12)   -179.9731         0.025248   
     84. D(C   3,C   4,C   1,C   5)     -0.0286         0.025248   
     85. D(H  13,C   4,C   3,C   0)   -179.9105         0.023888   
     86. D(H  13,C   4,C   3,C   8)      0.3698         0.023888   
     87. D(H  13,C   4,C   1,C   5)    179.9511         0.025248   
     88. D(O   6,C   5,C   2,O   7)      0.0050         0.026658   
     89. D(O   6,C   5,C   2,C   0)   -179.9956         0.026658   
     90. D(C   1,C   5,C   2,C   0)      0.0251         0.026658   
     91. D(O   6,C   5,C   1,H  12)     -0.0538         0.027272   
     92. D(O   6,C   5,C   1,C   4)   -179.9971         0.027272   
     93. D(C   2,C   5,C   1,H  12)    179.9246         0.027272   
     94. D(C   2,C   5,C   1,C   4)     -0.0187         0.027272   
     95. D(C   1,C   5,C   2,O   7)   -179.9743         0.026658   
     96. D(H  14,O   6,C   5,C   2)   -179.7705         0.027023   
     97. D(H  14,O   6,C   5,C   1)      0.2084         0.027023   
     98. D(H  15,O   7,C   2,C   5)     -0.0657         0.027412   
     99. D(H  15,O   7,C   2,C   0)    179.9349         0.027412   
    100. D(H  16,C   8,C   3,C   0)    164.7169         0.011894   
    101. D(C   9,C   8,C   3,C   4)    107.8551         0.011894   
    102. D(C   9,C   8,C   3,C   0)    -71.8613         0.011894   
    103. D(H  17,C   8,C   3,C   4)   -130.5622         0.011894   
    104. D(H  17,C   8,C   3,C   0)     49.7214         0.011894   
    105. D(H  16,C   8,C   3,C   4)    -15.5667         0.011894   
    106. D(Cu 22,C   9,C   8,H  17)    100.2147         0.011292   
    107. D(Cu 22,C   9,C   8,H  16)    -15.0284         0.011292   
    108. D(Cu 22,C   9,C   8,C   3)   -138.6291         0.011292   
    109. D(H  19,C   9,C   8,H  16)    -60.6456         0.011292   
    110. D(H  19,C   9,C   8,C   3)    175.7537         0.011292   
    111. D(H  18,C   9,C   8,H  17)    -62.5015         0.011292   
    112. D(H  18,C   9,C   8,H  16)   -177.7446         0.011292   
    113. D(H  19,C   9,C   8,H  17)     54.5974         0.011292   
    114. D(H  18,C   9,C   8,C   3)     58.6547         0.011292   
    115. D(N  10,C   9,C   8,H  17)    175.0220         0.011292   
    116. D(N  10,C   9,C   8,H  16)     59.7790         0.011292   
    117. D(N  10,C   9,C   8,C   3)    -63.8217         0.011292   
    118. D(Cu 22,N  10,C   9,H  19)    -30.0858         0.017644   
    119. D(Cu 22,N  10,C   9,H  18)     85.5803         0.017644   
    120. D(H  21,N  10,C   9,Cu 22)     98.6653         0.017644   
    121. D(H  21,N  10,C   9,H  19)     68.5795         0.017644   
    122. D(H  21,N  10,C   9,H  18)   -175.7544         0.017644   
    123. D(H  21,N  10,C   9,C   8)    -52.2106         0.017644   
    124. D(H  20,N  10,C   9,Cu 22)   -146.3357         0.017644   
    125. D(Cu 22,N  10,C   9,C   8)   -150.8760         0.017644   
    126. D(H  20,N  10,C   9,H  19)   -176.4215         0.017644   
    127. D(H  20,N  10,C   9,H  18)    -60.7555         0.017644   
    128. D(H  20,N  10,C   9,C   8)     62.7883         0.017644   
    129. D(Cu 22,H  19,C   9,H  18)    -83.6854         0.126041   
    130. D(Cu 22,H  19,C   9,N  10)     33.1801         0.126041   
    131. D(Cu 22,H  19,C   9,C   8)    156.8280         0.126041   
    132. D(N  10,Cu 22,C   9,H  19)    144.0625         0.003186   
    133. D(N  10,Cu 22,C   9,H  18)   -108.6068         0.003186   
    134. D(N  10,Cu 22,C   9,C   8)     87.5947         0.003186   
    135. D(N  10,Cu 22,H  19,C   9)    -25.3075         0.006600   
    136. D(H  19,Cu 22,N  10,H  20)    118.4631         0.005940   
    137. D(H  19,Cu 22,N  10,C   9)     19.4491         0.005940   
    138. D(C   9,Cu 22,N  10,H  21)   -106.8373         0.005940   
    139. D(C   9,Cu 22,N  10,H  20)     99.0140         0.005940   
    140. D(H  19,Cu 22,C   9,H  18)    107.3306         0.003186   
    141. D(H  19,Cu 22,N  10,H  21)    -87.3882         0.005940   
    142. D(H  19,Cu 22,C   9,N  10)   -144.0625         0.003186   
    143. D(H  19,Cu 22,C   9,C   8)    -56.4678         0.003186   
    -----------------------------------------------------------------

Number of atoms                         .... 23
Number of degrees of freedom            .... 143

         *************************************************************
         *                GEOMETRY OPTIMIZATION CYCLE   1            *
         *************************************************************
---------------------------------
CARTESIAN COORDINATES (ANGSTROEM)
---------------------------------
  C     -0.074381   -1.017724   -0.365733
  C     -1.104295    1.582582   -0.145174
  C     -1.404297   -0.807838   -0.028468
  C      0.764127    0.082008   -0.598285
  C      0.237318    1.380673   -0.485702
  C     -1.918680    0.480698    0.082127
  O     -3.237740    0.612654    0.417989
  O     -2.212182   -1.885801    0.196219
  C      2.216363   -0.129253   -0.958825
  C      3.082353   -0.623390    0.210232
  N      3.177358    0.336596    1.311590
  H      0.300199   -2.034529   -0.445753
  H     -1.486399    2.594964   -0.065194
  H      0.872918    2.245792   -0.664027
  H     -3.446612    1.561874    0.452057
  H     -3.082382   -1.496456    0.413871
  H      2.639984    0.798710   -1.364264
  H      2.266265   -0.859784   -1.776551
  H      2.697246   -1.571127    0.602530
  H      4.094823   -0.820415   -0.159063
  H      2.243593    0.479729    1.700370
  H      3.467199    1.243717    0.950192
  Cu     4.764860   -0.646749    1.331403

----------------------------
CARTESIAN COORDINATES (A.U.)
----------------------------
  NO LB      ZA    FRAG     MASS         X           Y           Z
   0 C     6.0000    0    12.011   -0.140560   -1.923220   -0.691135
   1 C     6.0000    0    12.011   -2.086815    2.990647   -0.274339
   2 C     6.0000    0    12.011   -2.653737   -1.526593   -0.053797
   3 C     6.0000    0    12.011    1.443991    0.154973   -1.130595
   4 C     6.0000    0    12.011    0.448466    2.609094   -0.917844
   5 C     6.0000    0    12.011   -3.625780    0.908388    0.155198
   6 O     8.0000    0    15.999   -6.118442    1.157748    0.789885
   7 O     8.0000    0    15.999   -4.180418   -3.563647    0.370800
   8 C     6.0000    0    12.011    4.188319   -0.244253   -1.811917
   9 C     6.0000    0    12.011    5.824803   -1.178036    0.397281
  10 N     7.0000    0    14.007    6.004336    0.636074    2.478546
  11 H     1.0000    0     1.008    0.567294   -3.844703   -0.842351
  12 H     1.0000    0     1.008   -2.808887    4.903771   -0.123199
  13 H     1.0000    0     1.008    1.649576    4.243932   -1.254829
  14 H     1.0000    0     1.008   -6.513153    2.951514    0.854264
  15 H     1.0000    0     1.008   -5.824858   -2.827892    0.782103
  16 H     1.0000    0     1.008    4.988847    1.509343   -2.578085
  17 H     1.0000    0     1.008    4.282620   -1.624756   -3.357195
  18 H     1.0000    0     1.008    5.097056   -2.969000    1.138617
  19 H     1.0000    0     1.008    7.738094   -1.550360   -0.300586
  20 H     1.0000    0     1.008    4.239776    0.906556    3.213234
  21 H     1.0000    0     1.008    6.552057    2.350285    1.795603
  22 Cu   29.0000    0    63.550    9.004281   -1.222179    2.515988

--------------------------------
INTERNAL COORDINATES (ANGSTROEM)
--------------------------------
 C      0   0   0     0.000000000000     0.00000000     0.00000000
 C      1   0   0     2.805523197821     0.00000000     0.00000000
 C      1   2   0     1.387975641096    59.26918075     0.00000000
 C      1   2   3     1.402350373691    60.37607015   180.02845998
 C      2   1   3     1.398803776387    59.66750404   180.00611131
 C      2   1   3     1.388897772438    59.52236256     0.00000000
 O      6   2   1     1.367528775778   121.95227700   180.00920684
 O      3   1   2     1.365711042118   119.17143681   179.98692815
 C      4   1   2     1.511161705913   120.30129602   179.68637508
 C      9   4   1     1.536490912475   113.89539138   288.13868293
 N     10   9   4     1.464099899045   113.45675457   296.17826453
 H      1   2   3     1.086556848409   178.59078522     2.05040317
 H      2   1   3     1.085042663281   179.03158820   183.19274898
 H      5   2   1     1.088217831956   119.03442604   179.94485396
 H      7   6   2     0.972525963359   108.05584911     0.20840682
 H      8   3   1     0.977859888803   104.40472661   179.93487285
 H      9   4   1     1.097702538820   109.92603166   164.71691619
 H      9   4   1     1.097652751393   108.32896839    49.72143441
 H     10   9   4     1.095632485563   110.64113857    58.65467567
 H     10   9   4     1.095578910234   108.79763881   175.75366564
 H     11  10   9     1.021544917913   108.59311985    62.78833923
 H     11  10   9     1.018569991864   109.60310980   307.78938786
 Cu    20  10   9     1.643350089754    92.98494728   156.82803349

---------------------------
INTERNAL COORDINATES (A.U.)
---------------------------
 C      0   0   0     0.000000000000     0.00000000     0.00000000
 C      1   0   0     5.301670506245     0.00000000     0.00000000
 C      1   2   0     2.622893842226    59.26918075     0.00000000
 C      1   2   3     2.650058150079    60.37607015   180.02845998
 C      2   1   3     2.643356052466    59.66750404   180.00611131
 C      2   1   3     2.624636417920    59.52236256     0.00000000
 O      6   2   1     2.584254866476   121.95227700   180.00920684
 O      3   1   2     2.580819847675   119.17143681   179.98692815
 C      4   1   2     2.855681768244   120.30129602   179.68637508
 C      9   4   1     2.903547031836   113.89539138   288.13868293
 N     10   9   4     2.766747841898   113.45675457   296.17826453
 H      1   2   3     2.053294872430   178.59078522     2.05040317
 H      2   1   3     2.050433477222   179.03158820   183.19274898
 H      5   2   1     2.056433676445   119.03442604   179.94485396
 H      7   6   2     1.837807728877   108.05584911     0.20840682
 H      8   3   1     1.847887387184   104.40472661   179.93487285
 H      9   4   1     2.074357174879   109.92603166   164.71691619
 H      9   4   1     2.074263090278   108.32896839    49.72143441
 H     10   9   4     2.070445341142   110.64113857    58.65467567
 H     10   9   4     2.070344098443   108.79763881   175.75366564
 H     11  10   9     1.930440128355   108.59311985    62.78833923
 H     11  10   9     1.924818332854   109.60310980   307.78938786
 Cu    20  10   9     3.105481611790    92.98494728   156.82803349

---------------------
BASIS SET INFORMATION
---------------------
There are 5 groups of distinct atoms

 Group   1 Type C   : 11s6p2d1f contracted to 5s3p2d1f pattern {62111/411/11/1}
 Group   2 Type O   : 11s6p2d1f contracted to 5s3p2d1f pattern {62111/411/11/1}
 Group   3 Type N   : 11s6p2d1f contracted to 5s3p2d1f pattern {62111/411/11/1}
 Group   4 Type H   : 5s1p contracted to 3s1p pattern {311/1}
 Group   5 Type Cu  : 17s11p7d1f contracted to 6s4p4d1f pattern {842111/6311/4111/1}

Atom   0C    basis set group =>   1
Atom   1C    basis set group =>   1
Atom   2C    basis set group =>   1
Atom   3C    basis set group =>   1
Atom   4C    basis set group =>   1
Atom   5C    basis set group =>   1
Atom   6O    basis set group =>   2
Atom   7O    basis set group =>   2
Atom   8C    basis set group =>   1
Atom   9C    basis set group =>   1
Atom  10N    basis set group =>   3
Atom  11H    basis set group =>   4
Atom  12H    basis set group =>   4
Atom  13H    basis set group =>   4
Atom  14H    basis set group =>   4
Atom  15H    basis set group =>   4
Atom  16H    basis set group =>   4
Atom  17H    basis set group =>   4
Atom  18H    basis set group =>   4
Atom  19H    basis set group =>   4
Atom  20H    basis set group =>   4
Atom  21H    basis set group =>   4
Atom  22Cu   basis set group =>   5
---------------------------------
AUXILIARY/J BASIS SET INFORMATION
---------------------------------
There are 5 groups of distinct atoms

 Group   1 Type C   : 12s5p4d2f1g contracted to 6s4p3d1f1g pattern {711111/2111/211/2/1}
 Group   2 Type O   : 12s5p4d2f1g contracted to 6s4p3d1f1g pattern {711111/2111/211/2/1}
 Group   3 Type N   : 12s5p4d2f1g contracted to 6s4p3d1f1g pattern {711111/2111/211/2/1}
 Group   4 Type H   : 5s2p1d contracted to 3s1p1d pattern {311/2/1}
 Group   5 Type Cu  : 19s5p5d3f3g contracted to 8s5p4d3f3g pattern {121111111/11111/2111/111/111}

Atom   0C    basis set group =>   1
Atom   1C    basis set group =>   1
Atom   2C    basis set group =>   1
Atom   3C    basis set group =>   1
Atom   4C    basis set group =>   1
Atom   5C    basis set group =>   1
Atom   6O    basis set group =>   2
Atom   7O    basis set group =>   2
Atom   8C    basis set group =>   1
Atom   9C    basis set group =>   1
Atom  10N    basis set group =>   3
Atom  11H    basis set group =>   4
Atom  12H    basis set group =>   4
Atom  13H    basis set group =>   4
Atom  14H    basis set group =>   4
Atom  15H    basis set group =>   4
Atom  16H    basis set group =>   4
Atom  17H    basis set group =>   4
Atom  18H    basis set group =>   4
Atom  19H    basis set group =>   4
Atom  20H    basis set group =>   4
Atom  21H    basis set group =>   4
Atom  22Cu   basis set group =>   5


           ************************************************************
           *        Program running with 8 parallel MPI-processes     *
           *              working on a common directory               *
           ************************************************************
------------------------------------------------------------------------------
                           ORCA GTO INTEGRAL CALCULATION
                           -- RI-GTO INTEGRALS CHOSEN --
------------------------------------------------------------------------------
------------------------------------------------------------------------------
                   ___                                                        
                  /   \      - P O W E R E D   B Y -                         
                 /     \                                                     
                 |  |  |   _    _      __       _____    __    __             
                 |  |  |  | |  | |    /  \     |  _  \  |  |  /  |          
                  \  \/   | |  | |   /    \    | | | |  |  | /  /          
                 / \  \   | |__| |  /  /\  \   | |_| |  |  |/  /          
                |  |  |   |  __  | /  /__\  \  |    /   |      \           
                |  |  |   | |  | | |   __   |  |    \   |  |\   \          
                \     /   | |  | | |  |  |  |  | |\  \  |  | \   \       
                 \___/    |_|  |_| |__|  |__|  |_| \__\ |__|  \__/        
                                                                              
                      - O R C A' S   B I G   F R I E N D -                    
                                      &                                       
                       - I N T E G R A L  F E E D E R -                       
                                                                              
 v1 FN, 2020, v2 2021                                                         
------------------------------------------------------------------------------


Reading SHARK input file ex.SHARKINP.tmp ... ok
----------------------
SHARK INTEGRAL PACKAGE
----------------------

Number of atoms                             ...     23
Number of basis functions                   ...    452
Number of shells                            ...    180
Maximum angular momentum                    ...      3
Integral batch strategy                     ... SHARK/LIBINT Hybrid
RI-J (if used) integral strategy            ... SPLIT-RIJ (Revised 2003 algorithm where possible)
Printlevel                                  ...      1
Contraction scheme used                     ... SEGMENTED contraction
Coulomb Range Separation                    ... NOT USED
Exchange Range Separation                   ... NOT USED
Finite Nucleus Model                        ... NOT USED
Auxiliary Coulomb fitting basis             ... AVAILABLE
   # of basis functions in Aux-J            ...    751
   # of shells in Aux-J                     ...    243
   Maximum angular momentum in Aux-J        ...      4
Auxiliary J/K fitting basis                 ... NOT available
Auxiliary Correlation fitting basis         ... NOT available
Auxiliary 'external' fitting basis          ... NOT available
Integral threshold                          ...     2.500000e-11
Primitive cut-off                           ...     2.500000e-12
Primitive pair pre-selection threshold      ...     2.500000e-12

Calculating pre-screening integrals         ... done (  0.1 sec) Dimension = 180
Organizing shell pair data                  ... done (  0.1 sec)
Shell pair information
Total number of shell pairs                 ...     16290
Shell pairs after pre-screening             ...     13335
Total number of primitive shell pairs       ...     52337
Primitive shell pairs kept                  ...     29804
          la=0 lb=0:   3571 shell pairs
          la=1 lb=0:   3759 shell pairs
          la=1 lb=1:   1019 shell pairs
          la=2 lb=0:   1988 shell pairs
          la=2 lb=1:   1052 shell pairs
          la=2 lb=2:    286 shell pairs
          la=3 lb=0:    879 shell pairs
          la=3 lb=1:    472 shell pairs
          la=3 lb=2:    247 shell pairs
          la=3 lb=3:     62 shell pairs

Calculating one electron integrals          ... done (  0.0 sec)
Calculating RI/J V-Matrix + Cholesky decomp.... done (  0.0 sec)
Calculating Nuclear repulsion               ... done (  0.0 sec) ENN=    910.294345503695 Eh

SHARK setup successfully completed in   0.3 seconds

Maximum memory used throughout the entire GTOINT-calculation: 22.9 MB


           ************************************************************
           *        Program running with 8 parallel MPI-processes     *
           *              working on a common directory               *
           ************************************************************
-------------------------------------------------------------------------------
                                 ORCA SCF
-------------------------------------------------------------------------------

------------
SCF SETTINGS
------------
Hamiltonian:
 Density Functional     Method          .... DFT(GTOs)
 Exchange Functional    Exchange        .... PBE
   PBE kappa parameter   XKappa         ....  0.804000
   PBE mue parameter    XMuePBE         ....  0.219520
 Correlation Functional Correlation     .... PBE
   PBE beta parameter  CBetaPBE         ....  0.066725
 LDA part of GGA corr.  LDAOpt          .... PW91-LDA
 Gradients option       PostSCFGGA      .... off
   Density functional embedding theory  .... OFF
   NL short-range parameter             ....  6.400000
 RI-approximation to the Coulomb term is turned on
   Number of AuxJ basis functions       .... 751


General Settings:
 Integral files         IntName         .... ex
 Hartree-Fock type      HFTyp           .... UHF
 Total Charge           Charge          ....    0
 Multiplicity           Mult            ....    2
 Number of Electrons    NEL             ....  111
 Basis Dimension        Dim             ....  452
 Nuclear Repulsion      ENuc            ....    910.2943455037 Eh

Convergence Acceleration:
 DIIS                   CNVDIIS         .... on
   Start iteration      DIISMaxIt       ....    12
   Startup error        DIISStart       ....  0.200000
   # of expansion vecs  DIISMaxEq       ....     5
   Bias factor          DIISBfac        ....   1.050
   Max. coefficient     DIISMaxC        ....  10.000
 Trust-Rad. Augm. Hess. CNVTRAH         .... auto
   Auto Start mean grad. ratio tolernc. ....  1.125000
   Auto Start start iteration           ....    20
   Auto Start num. interpolation iter.  ....    10
   Max. Number of Micro iterations      ....    16
   Max. Number of Macro iterations      .... Maxiter - #DIIS iter
   Number of Davidson start vectors     ....     2
   Converg. threshold I  (grad. norm)   ....   1.000e-05
   Converg. threshold II (energy diff.) ....   1.000e-08
   Grad. Scal. Fac. for Micro threshold ....   0.100
   Minimum threshold for Micro iter.    ....   0.010
   NR start threshold (gradient norm)   ....   0.001
   Initial trust radius                 ....   0.400
   Minimum AH scaling param. (alpha)    ....   1.000
   Maximum AH scaling param. (alpha)    .... 1000.000
   Orbital update algorithm             .... Taylor
   White noise on init. David. guess    .... on
   Maximum white noise                  ....   0.010
   Quad. conv. algorithm                .... NR
 SOSCF                  CNVSOSCF        .... off
 Level Shifting         CNVShift        .... on
   Level shift para.    LevelShift      ....    0.2500
   Turn off err/grad.   ShiftErr        ....    0.0010
 Zerner damping         CNVZerner       .... off
 Static damping         CNVDamp         .... on
   Fraction old density DampFac         ....    0.7000
   Max. Damping (<1)    DampMax         ....    0.9800
   Min. Damping (>=0)   DampMin         ....    0.0000
   Turn off err/grad.   DampErr         ....    0.1000
 Fernandez-Rico         CNVRico         .... off

SCF Procedure:
 Maximum # iterations   MaxIter         ....   125
 SCF integral mode      SCFMode         .... Direct
   Integral package                     .... SHARK and LIBINT hybrid scheme
 Reset frequency        DirectResetFreq ....    20
 Integral Threshold     Thresh          ....  2.500e-11 Eh
 Primitive CutOff       TCut            ....  2.500e-12 Eh

Convergence Tolerance:
 Convergence Check Mode ConvCheckMode   .... Total+1el-Energy
 Convergence forced     ConvForced      .... 0
 Energy Change          TolE            ....  1.000e-08 Eh
 1-El. energy change                    ....  1.000e-05 Eh
 DIIS Error             TolErr          ....  5.000e-07


Diagonalization of the overlap matrix:
Smallest eigenvalue                        ... 8.840e-06
Time for diagonalization                   ...    0.044 sec
Threshold for overlap eigenvalues          ... 1.000e-08
Number of eigenvalues below threshold      ... 0
Time for construction of square roots      ...    0.023 sec
Total time needed                          ...    0.069 sec

Time for model grid setup =    0.131 sec

------------------------------
INITIAL GUESS: MODEL POTENTIAL
------------------------------
Loading Hartree-Fock densities                     ... done
Calculating cut-offs                               ... done
Initializing the effective Hamiltonian             ... done
Setting up the integral package (SHARK)            ... done
Starting the Coulomb interaction                   ... done (   0.2 sec)
Reading the grid                                   ... done
Mapping shells                                     ... done
Starting the XC term evaluation                    ... done (   0.1 sec)
  promolecular density results
     # of electrons  =    110.988079042
     EX              =   -132.631857107
     EC              =     -4.119167928
     EX+EC           =   -136.751025035
Transforming the Hamiltonian                       ... done (   0.0 sec)
Diagonalizing the Hamiltonian                      ... done (   0.0 sec)
Back transforming the eigenvectors                 ... done (   0.0 sec)
Now organizing SCF variables                       ... done
                      ------------------
                      INITIAL GUESS DONE (   0.5 sec)
                      ------------------
-------------------
DFT GRID GENERATION
-------------------

General Integration Accuracy     IntAcc      ... 4.388
Radial Grid Type                 RadialGrid  ... OptM3 with GC (2021)
Angular Grid (max. ang.)         AngularGrid ... 4 (Lebedev-302)
Angular grid pruning method      GridPruning ... 4 (adaptive)
Weight generation scheme         WeightScheme... Becke
Basis function cutoff            BFCut       ... 1.0000e-11
Integration weight cutoff        WCut        ... 1.0000e-14
Angular grids for H and He will be reduced by one unit
Partially contracted basis set               ... off
Rotationally invariant grid construction     ... off

Total number of grid points                  ...   112167
Total number of batches                      ...     1766
Average number of points per batch           ...       63
Average number of grid points per atom       ...     4877
Time for grid setup =    0.596 sec

--------------
SCF ITERATIONS
--------------
ITER       Energy         Delta-E        Max-DP      RMS-DP      [F,P]     Damp
               ***  Starting incremental Fock matrix formation  ***
  0  -2156.1167959527   0.000000000000 0.13582862  0.00108341  0.2253857 0.7000
  1  -2156.2825723010  -0.165776348305 0.10997446  0.00086555  0.0858250 0.7000
                               ***Turning on DIIS***
  2  -2156.3397926442  -0.057220343141 0.17387835  0.00129205  0.0475028 0.0000
  3  -2156.4303370210  -0.090544376867 0.02719089  0.00018935  0.1062045 0.7000
  4  -2156.4427708554  -0.012433834398 0.09901123  0.00070802  0.0770648 0.0000
  5  -2156.4616866384  -0.018915782949 0.01108320  0.00010835  0.0115172 0.0000
  6  -2156.4623860725  -0.000699434090 0.00353256  0.00003925  0.0024113 0.0000
  7  -2156.4624271578  -0.000041085280 0.00515638  0.00004682  0.0008858 0.0000
  8  -2156.4624413103  -0.000014152569 0.00092446  0.00000614  0.0011009 0.0000
  9  -2156.4624443169  -0.000003006606 0.00180898  0.00001219  0.0003645 0.0000
 10  -2156.4624444615  -0.000000144584 0.00024141  0.00000217  0.0005853 0.0000
 11  -2156.4624446987  -0.000000237189 0.00028893  0.00000226  0.0002911 0.0000
 12  -2156.4624448198  -0.000000121071 0.00009337  0.00000081  0.0000336 0.0000
 13  -2156.4624448290  -0.000000009273 0.00008499  0.00000066  0.0000198 0.0000
 14  -2156.4624448270   0.000000002031 0.00005937  0.00000045  0.0000140 0.0000
 15  -2156.4624448228   0.000000004246 0.00005220  0.00000038  0.0000086 0.0000
 16  -2156.4624448320  -0.000000009203 0.00005651  0.00000043  0.0000012 0.0000
                 **** Energy Check signals convergence ****

               *****************************************************
               *                     SUCCESS                       *
               *           SCF CONVERGED AFTER  17 CYCLES          *
               *****************************************************


----------------
TOTAL SCF ENERGY
----------------

Total Energy       :        -2156.46244484 Eh          -58680.32637 eV

Components:
Nuclear Repulsion  :          910.29434550 Eh           24770.36844 eV
Electronic Energy  :        -3066.75679034 Eh          -83450.69482 eV
One Electron Energy:        -4797.29558275 Eh         -130541.04939 eV
Two Electron Energy:         1730.53879241 Eh           47090.35457 eV

Virial components:
Potential Energy   :        -4308.79627961 Eh         -117248.30756 eV
Kinetic Energy     :         2152.33383477 Eh           58567.98118 eV
Virial Ratio       :            2.00191820


DFT components:
N(Alpha)           :       56.000096777233 electrons
N(Beta)            :       55.000038631775 electrons
N(Total)           :      111.000135409008 electrons
E(X)               :     -133.941447400106 Eh       
E(C)               :       -4.119288762556 Eh       
E(XC)              :     -138.060736162662 Eh       
DFET-embed. en.    :        0.000000000000 Eh       

---------------
SCF CONVERGENCE
---------------

  Last Energy change         ...   -7.6607e-09  Tolerance :   1.0000e-08
  Last MAX-Density change    ...    4.3347e-05  Tolerance :   1.0000e-07
  Last RMS-Density change    ...    3.5801e-07  Tolerance :   5.0000e-09
  Last DIIS Error            ...    7.5499e-07  Tolerance :   5.0000e-07

             **** THE GBW FILE WAS UPDATED (ex.gbw) ****
             **** DENSITY ex.scfp WAS UPDATED ****
             **** ENERGY FILE WAS UPDATED (ex.en.tmp) ****
----------------------
UHF SPIN CONTAMINATION
----------------------

Warning: in a DFT calculation there is little theoretical justification to 
         calculate <S**2> as in Hartree-Fock theory. We will do it anyways
         but you should keep in mind that the values have only limited relevance

Expectation value of <S**2>     :     0.752980
Ideal value S*(S+1) for S=0.5   :     0.750000
Deviation                       :     0.002980

             **** THE GBW FILE WAS UPDATED (ex.gbw) ****
             **** DENSITY ex.scfp WAS UPDATED ****
----------------
ORBITAL ENERGIES
----------------
                 SPIN UP ORBITALS
  NO   OCC          E(Eh)            E(eV) 
   0   1.0000    -321.478916     -8747.8860 
   1   1.0000     -38.249774     -1040.8293 
   2   1.0000     -33.541368      -912.7070 
   3   1.0000     -33.540342      -912.6791 
   4   1.0000     -33.539915      -912.6675 
   5   1.0000     -18.809703      -511.8380 
   6   1.0000     -18.791266      -511.3363 
   7   1.0000     -14.023780      -381.6064 
   8   1.0000      -9.957313      -270.9523 
   9   1.0000      -9.954310      -270.8705 
  10   1.0000      -9.941144      -270.5123 
  11   1.0000      -9.907339      -269.5924 
  12   1.0000      -9.904281      -269.5092 
  13   1.0000      -9.903569      -269.4898 
  14   1.0000      -9.897345      -269.3205 
  15   1.0000      -9.895617      -269.2734 
  16   1.0000      -4.083329      -111.1130 
  17   1.0000      -2.622266       -71.3555 
  18   1.0000      -2.619081       -71.2688 
  19   1.0000      -2.614997       -71.1577 
  20   1.0000      -1.009341       -27.4656 
  21   1.0000      -0.978680       -26.6312 
  22   1.0000      -0.870428       -23.6856 
  23   1.0000      -0.793100       -21.5813 
  24   1.0000      -0.722009       -19.6469 
  25   1.0000      -0.689439       -18.7606 
  26   1.0000      -0.667324       -18.1588 
  27   1.0000      -0.614833       -16.7305 
  28   1.0000      -0.579421       -15.7669 
  29   1.0000      -0.561039       -15.2666 
  30   1.0000      -0.518827       -14.1180 
  31   1.0000      -0.505862       -13.7652 
  32   1.0000      -0.489107       -13.3093 
  33   1.0000      -0.449065       -12.2197 
  34   1.0000      -0.445512       -12.1230 
  35   1.0000      -0.427199       -11.6247 
  36   1.0000      -0.421644       -11.4735 
  37   1.0000      -0.408848       -11.1253 
  38   1.0000      -0.401357       -10.9215 
  39   1.0000      -0.388614       -10.5747 
  40   1.0000      -0.376514       -10.2455 
  41   1.0000      -0.357183        -9.7194 
  42   1.0000      -0.340220        -9.2578 
  43   1.0000      -0.335042        -9.1170 
  44   1.0000      -0.325518        -8.8578 
  45   1.0000      -0.318013        -8.6536 
  46   1.0000      -0.311115        -8.4659 
  47   1.0000      -0.293638        -7.9903 
  48   1.0000      -0.230171        -6.2633 
  49   1.0000      -0.202812        -5.5188 
  50   1.0000      -0.196388        -5.3440 
  51   1.0000      -0.192453        -5.2369 
  52   1.0000      -0.190275        -5.1776 
  53   1.0000      -0.188673        -5.1341 
  54   1.0000      -0.160439        -4.3658 
  55   1.0000      -0.102105        -2.7784 
  56   0.0000      -0.055184        -1.5016 
  57   0.0000      -0.036564        -0.9950 
  58   0.0000      -0.021683        -0.5900 
  59   0.0000      -0.009540        -0.2596 
  60   0.0000       0.013913         0.3786 
  61   0.0000       0.017177         0.4674 
  62   0.0000       0.024241         0.6596 
  63   0.0000       0.034790         0.9467 
  64   0.0000       0.049265         1.3406 
  65   0.0000       0.052185         1.4200 
  66   0.0000       0.061885         1.6840 
  67   0.0000       0.072547         1.9741 
  68   0.0000       0.077622         2.1122 
  69   0.0000       0.093753         2.5511 
  70   0.0000       0.102768         2.7965 
  71   0.0000       0.106123         2.8878 
  72   0.0000       0.110889         3.0174 
  73   0.0000       0.114567         3.1175 
  74   0.0000       0.128498         3.4966 
  75   0.0000       0.144283         3.9261 
  76   0.0000       0.148811         4.0493 
  77   0.0000       0.153001         4.1634 
  78   0.0000       0.155522         4.2320 
  79   0.0000       0.170411         4.6371 
  80   0.0000       0.179400         4.8817 
  81   0.0000       0.184828         5.0294 
  82   0.0000       0.190208         5.1758 
  83   0.0000       0.195137         5.3099 
  84   0.0000       0.207484         5.6459 
  85   0.0000       0.214263         5.8304 
  86   0.0000       0.217258         5.9119 
  87   0.0000       0.225752         6.1430 
  88   0.0000       0.233063         6.3420 
  89   0.0000       0.247737         6.7413 
  90   0.0000       0.253612         6.9011 
  91   0.0000       0.258070         7.0224 
  92   0.0000       0.261659         7.1201 
  93   0.0000       0.269042         7.3210 
  94   0.0000       0.278439         7.5767 
  95   0.0000       0.282817         7.6959 
  96   0.0000       0.292788         7.9672 
  97   0.0000       0.301997         8.2178 
  98   0.0000       0.306306         8.3350 
  99   0.0000       0.311362         8.4726 
 100   0.0000       0.315355         8.5813 
 101   0.0000       0.326161         8.8753 
 102   0.0000       0.337453         9.1826 
 103   0.0000       0.344769         9.3817 
 104   0.0000       0.348975         9.4961 
 105   0.0000       0.359865         9.7924 
 106   0.0000       0.363427         9.8894 
 107   0.0000       0.371671        10.1137 
 108   0.0000       0.379715        10.3326 
 109   0.0000       0.386745        10.5239 
 110   0.0000       0.391217        10.6455 
 111   0.0000       0.395798        10.7702 
 112   0.0000       0.407321        11.0838 
 113   0.0000       0.413923        11.2634 
 114   0.0000       0.416382        11.3303 
 115   0.0000       0.429819        11.6960 
 116   0.0000       0.440374        11.9832 
 117   0.0000       0.446573        12.1519 
 118   0.0000       0.450834        12.2678 
 119   0.0000       0.467422        12.7192 
 120   0.0000       0.472297        12.8519 
 121   0.0000       0.477702        12.9989 
 122   0.0000       0.483175        13.1478 
 123   0.0000       0.489182        13.3113 
 124   0.0000       0.504230        13.7208 
 125   0.0000       0.517308        14.0767 
 126   0.0000       0.531272        14.4567 
 127   0.0000       0.536358        14.5950 
 128   0.0000       0.541936        14.7468 
 129   0.0000       0.559684        15.2298 
 130   0.0000       0.560749        15.2588 
 131   0.0000       0.572756        15.5855 
 132   0.0000       0.579796        15.7770 
 133   0.0000       0.592954        16.1351 
 134   0.0000       0.608315        16.5531 
 135   0.0000       0.612158        16.6577 
 136   0.0000       0.639371        17.3982 
 137   0.0000       0.653235        17.7754 
 138   0.0000       0.657704        17.8970 
 139   0.0000       0.679668        18.4947 
 140   0.0000       0.683861        18.6088 
 141   0.0000       0.702176        19.1072 
 142   0.0000       0.706641        19.2287 
 143   0.0000       0.719111        19.5680 
 144   0.0000       0.735490        20.0137 
 145   0.0000       0.756166        20.5763 
 146   0.0000       0.760163        20.6851 
 147   0.0000       0.767658        20.8890 
 148   0.0000       0.780715        21.2443 
 149   0.0000       0.793282        21.5863 
 150   0.0000       0.805752        21.9256 
 151   0.0000       0.815597        22.1935 
 152   0.0000       0.821953        22.3665 
 153   0.0000       0.840285        22.8653 
 154   0.0000       0.851923        23.1820 
 155   0.0000       0.860242        23.4084 
 156   0.0000       0.885447        24.0942 
 157   0.0000       0.893735        24.3198 
 158   0.0000       0.899608        24.4796 
 159   0.0000       0.922176        25.0937 
 160   0.0000       0.935349        25.4521 
 161   0.0000       0.959822        26.1181 
 162   0.0000       0.969931        26.3932 
 163   0.0000       0.982560        26.7368 
 164   0.0000       1.003585        27.3089 
 165   0.0000       1.011256        27.5177 
 166   0.0000       1.021147        27.7868 
 167   0.0000       1.033279        28.1170 
 168   0.0000       1.042863        28.3777 
 169   0.0000       1.063297        28.9338 
 170   0.0000       1.084795        29.5188 
 171   0.0000       1.090201        29.6659 
 172   0.0000       1.120222        30.4828 
 173   0.0000       1.122988        30.5581 
 174   0.0000       1.143029        31.1034 
 175   0.0000       1.160439        31.5771 
 176   0.0000       1.171755        31.8851 
 177   0.0000       1.183238        32.1975 
 178   0.0000       1.193962        32.4894 
 179   0.0000       1.205736        32.8098 
 180   0.0000       1.229848        33.4659 
 181   0.0000       1.232174        33.5292 
 182   0.0000       1.254602        34.1395 
 183   0.0000       1.264245        34.4019 
 184   0.0000       1.282087        34.8874 
 185   0.0000       1.285434        34.9784 
 186   0.0000       1.298399        35.3312 
 187   0.0000       1.310436        35.6588 
 188   0.0000       1.326097        36.0849 
 189   0.0000       1.344039        36.5732 
 190   0.0000       1.349260        36.7152 
 191   0.0000       1.376530        37.4573 
 192   0.0000       1.385853        37.7110 
 193   0.0000       1.407894        38.3107 
 194   0.0000       1.427623        38.8476 
 195   0.0000       1.436157        39.0798 
 196   0.0000       1.449689        39.4480 
 197   0.0000       1.459685        39.7200 
 198   0.0000       1.481990        40.3270 
 199   0.0000       1.505180        40.9580 
 200   0.0000       1.526075        41.5266 
 201   0.0000       1.531094        41.6632 
 202   0.0000       1.548966        42.1495 
 203   0.0000       1.559564        42.4379 
 204   0.0000       1.587105        43.1873 
 205   0.0000       1.589430        43.2506 
 206   0.0000       1.599160        43.5154 
 207   0.0000       1.601370        43.5755 
 208   0.0000       1.616234        43.9800 
 209   0.0000       1.630512        44.3685 
 210   0.0000       1.644833        44.7582 
 211   0.0000       1.656298        45.0702 
 212   0.0000       1.671483        45.4834 
 213   0.0000       1.682626        45.7866 
 214   0.0000       1.694329        46.1050 
 215   0.0000       1.722717        46.8775 
 216   0.0000       1.742641        47.4197 
 217   0.0000       1.763354        47.9833 
 218   0.0000       1.778985        48.4087 
 219   0.0000       1.781058        48.4650 
 220   0.0000       1.793285        48.7978 
 221   0.0000       1.808083        49.2004 
 222   0.0000       1.816382        49.4263 
 223   0.0000       1.832012        49.8516 
 224   0.0000       1.833203        49.8840 
 225   0.0000       1.861394        50.6511 
 226   0.0000       1.874260        51.0012 
 227   0.0000       1.889738        51.4224 
 228   0.0000       1.901686        51.7475 
 229   0.0000       1.917273        52.1716 
 230   0.0000       1.935786        52.6754 
 231   0.0000       1.947440        52.9925 
 232   0.0000       1.950037        53.0632 
 233   0.0000       1.984377        53.9977 
 234   0.0000       2.007058        54.6148 
 235   0.0000       2.023871        55.0723 
 236   0.0000       2.042767        55.5865 
 237   0.0000       2.048606        55.7454 
 238   0.0000       2.062703        56.1290 
 239   0.0000       2.065582        56.2074 
 240   0.0000       2.081050        56.6283 
 241   0.0000       2.084251        56.7153 
 242   0.0000       2.093808        56.9754 
 243   0.0000       2.111585        57.4592 
 244   0.0000       2.134878        58.0930 
 245   0.0000       2.147185        58.4279 
 246   0.0000       2.175032        59.1856 
 247   0.0000       2.185625        59.4739 
 248   0.0000       2.220290        60.4172 
 249   0.0000       2.232872        60.7595 
 250   0.0000       2.240329        60.9624 
 251   0.0000       2.251966        61.2791 
 252   0.0000       2.278857        62.0109 
 253   0.0000       2.325135        63.2701 
 254   0.0000       2.330997        63.4297 
 255   0.0000       2.355033        64.0837 
 256   0.0000       2.361461        64.2586 
 257   0.0000       2.367968        64.4357 
 258   0.0000       2.392535        65.1042 
 259   0.0000       2.392816        65.1118 
 260   0.0000       2.402908        65.3865 
 261   0.0000       2.410438        65.5914 
 262   0.0000       2.422631        65.9231 
 263   0.0000       2.452603        66.7387 
 264   0.0000       2.465096        67.0787 
 265   0.0000       2.496723        67.9393 
 266   0.0000       2.504433        68.1491 
 267   0.0000       2.528783        68.8117 
 268   0.0000       2.533956        68.9524 
 269   0.0000       2.551898        69.4407 
 270   0.0000       2.567665        69.8697 
 271   0.0000       2.571473        69.9733 
 272   0.0000       2.580112        70.2084 
 273   0.0000       2.589439        70.4622 
 274   0.0000       2.601836        70.7996 
 275   0.0000       2.623925        71.4006 
 276   0.0000       2.645771        71.9951 
 277   0.0000       2.648973        72.0822 
 278   0.0000       2.655746        72.2665 
 279   0.0000       2.662451        72.4490 
 280   0.0000       2.690659        73.2165 
 281   0.0000       2.703633        73.5696 
 282   0.0000       2.715666        73.8970 
 283   0.0000       2.723579        74.1124 
 284   0.0000       2.729513        74.2738 
 285   0.0000       2.748092        74.7794 
 286   0.0000       2.769527        75.3627 
 287   0.0000       2.778782        75.6145 
 288   0.0000       2.790323        75.9286 
 289   0.0000       2.802000        76.2463 
 290   0.0000       2.819244        76.7155 
 291   0.0000       2.829406        76.9921 
 292   0.0000       2.842479        77.3478 
 293   0.0000       2.858058        77.7717 
 294   0.0000       2.881845        78.4190 
 295   0.0000       2.890952        78.6668 
 296   0.0000       2.899346        78.8952 
 297   0.0000       2.927091        79.6502 
 298   0.0000       2.937050        79.9212 
 299   0.0000       2.960544        80.5605 
 300   0.0000       2.965487        80.6950 
 301   0.0000       2.969161        80.7950 
 302   0.0000       2.983706        81.1908 
 303   0.0000       2.993938        81.4692 
 304   0.0000       3.009837        81.9018 
 305   0.0000       3.037096        82.6436 
 306   0.0000       3.059229        83.2459 
 307   0.0000       3.070998        83.5661 
 308   0.0000       3.076236        83.7086 
 309   0.0000       3.089997        84.0831 
 310   0.0000       3.107292        84.5537 
 311   0.0000       3.110176        84.6322 
 312   0.0000       3.116869        84.8143 
 313   0.0000       3.138758        85.4099 
 314   0.0000       3.144466        85.5653 
 315   0.0000       3.172828        86.3370 
 316   0.0000       3.180476        86.5452 
 317   0.0000       3.192279        86.8663 
 318   0.0000       3.197530        87.0092 
 319   0.0000       3.223824        87.7247 
 320   0.0000       3.242143        88.2232 
 321   0.0000       3.252119        88.4946 
 322   0.0000       3.260008        88.7093 
 323   0.0000       3.262650        88.7812 
 324   0.0000       3.283957        89.3610 
 325   0.0000       3.304560        89.9216 
 326   0.0000       3.312786        90.1455 
 327   0.0000       3.320751        90.3622 
 328   0.0000       3.325741        90.4980 
 329   0.0000       3.347879        91.1004 
 330   0.0000       3.358289        91.3837 
 331   0.0000       3.370270        91.7097 
 332   0.0000       3.385665        92.1286 
 333   0.0000       3.393649        92.3459 
 334   0.0000       3.408548        92.7513 
 335   0.0000       3.422391        93.1280 
 336   0.0000       3.435497        93.4846 
 337   0.0000       3.464085        94.2625 
 338   0.0000       3.473755        94.5257 
 339   0.0000       3.498509        95.1993 
 340   0.0000       3.527883        95.9986 
 341   0.0000       3.549717        96.5927 
 342   0.0000       3.575439        97.2926 
 343   0.0000       3.591593        97.7322 
 344   0.0000       3.598903        97.9311 
 345   0.0000       3.611188        98.2654 
 346   0.0000       3.627851        98.7188 
 347   0.0000       3.649837        99.3171 
 348   0.0000       3.656112        99.4879 
 349   0.0000       3.677068       100.0581 
 350   0.0000       3.693345       100.5010 
 351   0.0000       3.735377       101.6448 
 352   0.0000       3.755428       102.1904 
 353   0.0000       3.782713       102.9329 
 354   0.0000       3.799290       103.3839 
 355   0.0000       3.807221       103.5997 
 356   0.0000       3.824299       104.0645 
 357   0.0000       3.834310       104.3369 
 358   0.0000       3.861395       105.0739 
 359   0.0000       3.886826       105.7659 
 360   0.0000       3.906861       106.3111 
 361   0.0000       3.928773       106.9073 
 362   0.0000       3.941689       107.2588 
 363   0.0000       3.978928       108.2721 
 364   0.0000       4.012623       109.1890 
 365   0.0000       4.022530       109.4586 
 366   0.0000       4.070471       110.7632 
 367   0.0000       4.077953       110.9667 
 368   0.0000       4.097290       111.4929 
 369   0.0000       4.108143       111.7882 
 370   0.0000       4.115004       111.9749 
 371   0.0000       4.121472       112.1509 
 372   0.0000       4.136876       112.5701 
 373   0.0000       4.180501       113.7572 
 374   0.0000       4.208784       114.5268 
 375   0.0000       4.224020       114.9414 
 376   0.0000       4.246265       115.5467 
 377   0.0000       4.295812       116.8950 
 378   0.0000       4.326657       117.7343 
 379   0.0000       4.337078       118.0179 
 380   0.0000       4.357283       118.5677 
 381   0.0000       4.364306       118.7588 
 382   0.0000       4.422396       120.3395 
 383   0.0000       4.455894       121.2510 
 384   0.0000       4.496331       122.3514 
 385   0.0000       4.522997       123.0770 
 386   0.0000       4.555460       123.9604 
 387   0.0000       4.624398       125.8363 
 388   0.0000       4.663584       126.9026 
 389   0.0000       4.691872       127.6723 
 390   0.0000       4.714301       128.2826 
 391   0.0000       4.748839       129.2225 
 392   0.0000       4.759284       129.5067 
 393   0.0000       4.790759       130.3632 
 394   0.0000       4.793384       130.4346 
 395   0.0000       4.830984       131.4577 
 396   0.0000       4.858774       132.2140 
 397   0.0000       4.897352       133.2637 
 398   0.0000       4.948702       134.6610 
 399   0.0000       4.983299       135.6025 
 400   0.0000       5.008054       136.2761 
 401   0.0000       5.013892       136.4349 
 402   0.0000       5.094710       138.6341 
 403   0.0000       5.118527       139.2822 
 404   0.0000       5.153087       140.2226 
 405   0.0000       5.162053       140.4666 
 406   0.0000       5.201792       141.5480 
 407   0.0000       5.236513       142.4928 
 408   0.0000       5.282664       143.7486 
 409   0.0000       5.321535       144.8063 
 410   0.0000       5.370205       146.1307 
 411   0.0000       5.372462       146.1921 
 412   0.0000       5.387920       146.6127 
 413   0.0000       5.463500       148.6694 
 414   0.0000       5.514163       150.0480 
 415   0.0000       5.536392       150.6529 
 416   0.0000       5.604785       152.5139 
 417   0.0000       5.681605       154.6043 
 418   0.0000       5.693443       154.9265 
 419   0.0000       5.724407       155.7690 
 420   0.0000       5.740793       156.2149 
 421   0.0000       5.748900       156.4355 
 422   0.0000       5.753539       156.5618 
 423   0.0000       5.765330       156.8826 
 424   0.0000       5.851363       159.2237 
 425   0.0000       5.859986       159.4583 
 426   0.0000       5.968643       162.4150 
 427   0.0000       6.061714       164.9476 
 428   0.0000       6.135333       166.9509 
 429   0.0000       6.241873       169.8500 
 430   0.0000       6.247792       170.0111 
 431   0.0000       6.292856       171.2373 
 432   0.0000       6.414761       174.5545 
 433   0.0000       6.510590       177.1621 
 434   0.0000       6.613750       179.9693 
 435   0.0000       6.652611       181.0267 
 436   0.0000       6.686312       181.9438 
 437   0.0000       6.842112       186.1833 
 438   0.0000       6.861830       186.7199 
 439   0.0000       7.080591       192.6727 
 440   0.0000       7.205191       196.0632 
 441   0.0000      21.902030       595.9845 
 442   0.0000      22.240326       605.1900 
 443   0.0000      22.274938       606.1319 
 444   0.0000      22.428570       610.3124 
 445   0.0000      22.481802       611.7609 
 446   0.0000      22.601528       615.0188 
 447   0.0000      22.705872       617.8582 
 448   0.0000      23.131650       629.4442 
 449   0.0000      31.667032       861.7037 
 450   0.0000      43.429945      1181.7889 
 451   0.0000      43.657100      1187.9701 

                 SPIN DOWN ORBITALS
  NO   OCC          E(Eh)            E(eV) 
   0   1.0000    -321.478264     -8747.8683 
   1   1.0000     -38.249304     -1040.8165 
   2   1.0000     -33.540238      -912.6763 
   3   1.0000     -33.540018      -912.6703 
   4   1.0000     -33.539780      -912.6638 
   5   1.0000     -18.809669      -511.8371 
   6   1.0000     -18.791273      -511.3365 
   7   1.0000     -14.022729      -381.5779 
   8   1.0000      -9.957206      -270.9493 
   9   1.0000      -9.954338      -270.8713 
  10   1.0000      -9.940277      -270.4887 
[...]
      dx2y2   :     0.016500
      dxy     :     0.027959
      f0      :     0.000548  f :     0.004789
      f+1     :     0.000231
      f-1     :     0.000571
      f+2     :     0.000105
      f-2     :     0.000943
      f+3     :     0.001283
      f-3     :     0.001108
  8 C s       :     2.772807  s :     2.772807
      pz      :     1.012544  p :     3.033352
      px      :     0.994988
      py      :     1.025820
      dz2     :     0.052337  d :     0.379557
      dxz     :     0.099618
      dyz     :     0.084807
      dx2y2   :     0.084717
      dxy     :     0.058079
      f0      :     0.006659  f :     0.037687
      f+1     :     0.007645
      f-1     :     0.002064
      f+2     :     0.005932
      f-2     :     0.004600
      f+3     :     0.004055
      f-3     :     0.006733
  9 C s       :     2.801151  s :     2.801151
      pz      :     1.006200  p :     2.986652
      px      :     1.033116
      py      :     0.947335
      dz2     :     0.090712  d :     0.459640
      dxz     :     0.069158
      dyz     :     0.129587
      dx2y2   :     0.128270
      dxy     :     0.041913
      f0      :     0.008713  f :     0.050152
      f+1     :     0.005012
      f-1     :     0.009105
      f+2     :     0.007091
      f-2     :     0.008455
      f+3     :     0.006018
      f-3     :     0.005758
 10 N s       :     3.053824  s :     3.053824
      pz      :     1.258617  p :     3.827423
      px      :     1.170976
      py      :     1.397829
      dz2     :     0.027414  d :     0.159371
      dxz     :     0.040548
      dyz     :     0.028331
      dx2y2   :     0.041596
      dxy     :     0.021482
      f0      :     0.001079  f :     0.010255
      f+1     :     0.001337
      f-1     :     0.001725
      f+2     :     0.001675
      f-2     :     0.001186
      f+3     :     0.001893
      f-3     :     0.001361
 11 H s       :     0.783645  s :     0.783645
      pz      :     0.016109  p :     0.063731
      px      :     0.017421
      py      :     0.030201
 12 H s       :     0.788930  s :     0.788930
      pz      :     0.015816  p :     0.059136
      px      :     0.015736
      py      :     0.027585
 13 H s       :     0.794303  s :     0.794303
      pz      :     0.013928  p :     0.058525
      px      :     0.016938
      py      :     0.027659
 14 H s       :     0.653467  s :     0.653467
      pz      :     0.039727  p :     0.150193
      px      :     0.029447
      py      :     0.081020
 15 H s       :     0.653860  s :     0.653860
      pz      :     0.044181  p :     0.148877
      px      :     0.050899
      py      :     0.053797
 16 H s       :     0.790062  s :     0.790062
      pz      :     0.017247  p :     0.058155
      px      :     0.013210
      py      :     0.027698
 17 H s       :     0.782058  s :     0.782058
      pz      :     0.020176  p :     0.059787
      px      :     0.012223
      py      :     0.027388
 18 H s       :     0.801343  s :     0.801343
      pz      :     0.014927  p :     0.058934
      px      :     0.032892
      py      :     0.011116
 19 H s       :     0.813505  s :     0.813505
      pz      :     0.018770  p :     0.059355
      px      :     0.012767
      py      :     0.027817
 20 H s       :     0.709371  s :     0.709371
      pz      :     0.025891  p :     0.107428
      px      :     0.054960
      py      :     0.026577
 21 H s       :     0.719775  s :     0.719775
      pz      :     0.045424  p :     0.105708
      px      :     0.033799
      py      :     0.026486
 22 Cus       :     7.034470  s :     7.034470
      pz      :     4.052478  p :    12.243934
      px      :     4.011707
      py      :     4.179749
      dz2     :     2.006401  d :    10.018600
      dxz     :     2.011334
      dyz     :     1.993168
      dx2y2   :     1.991253
      dxy     :     2.016444
      f0      :     0.000010  f :     0.000057
      f+1     :     0.000000
      f-1     :     0.000004
      f+2     :     0.000023
      f-2     :     0.000003
      f+3     :     0.000002
      f-3     :     0.000014

SPIN
  0 C s       :     0.001610  s :     0.001610
      pz      :     0.000319  p :     0.007739
      px      :     0.001511
      py      :     0.005909
      dz2     :     0.000117  d :     0.000049
      dxz     :    -0.000025
      dyz     :     0.000001
      dx2y2   :    -0.000041
      dxy     :    -0.000004
      f0      :     0.000006  f :     0.000020
      f+1     :    -0.000001
      f-1     :     0.000002
      f+2     :    -0.000002
      f-2     :    -0.000004
      f+3     :     0.000021
      f-3     :    -0.000001
  1 C s       :     0.000004  s :     0.000004
      pz      :     0.000319  p :     0.000396
      px      :     0.000058
      py      :     0.000019
      dz2     :     0.000039  d :     0.000148
      dxz     :     0.000069
      dyz     :    -0.000002
      dx2y2   :     0.000015
      dxy     :     0.000026
      f0      :    -0.000000  f :     0.000014
      f+1     :     0.000006
      f-1     :    -0.000000
      f+2     :     0.000002
      f-2     :     0.000000
      f+3     :     0.000004
      f-3     :     0.000003
  2 C s       :     0.000019  s :     0.000019
      pz      :     0.000272  p :     0.000230
      px      :    -0.000101
      py      :     0.000059
      dz2     :     0.000085  d :     0.000956
      dxz     :     0.000027
      dyz     :     0.000085
      dx2y2   :     0.000024
      dxy     :     0.000734
      f0      :     0.000001  f :     0.000053
      f+1     :     0.000004
      f-1     :     0.000002
      f+2     :     0.000002
      f-2     :     0.000006
      f+3     :     0.000006
      f-3     :     0.000031
  3 C s       :    -0.000012  s :    -0.000012
      pz      :    -0.000113  p :    -0.000010
      px      :    -0.000028
      py      :     0.000131
      dz2     :     0.000007  d :     0.001539
      dxz     :     0.000211
      dyz     :     0.000253
      dx2y2   :     0.000776
      dxy     :     0.000293
      f0      :     0.000003  f :     0.000050
      f+1     :     0.000002
      f-1     :     0.000005
      f+2     :     0.000018
      f-2     :     0.000004
      f+3     :     0.000001
      f-3     :     0.000016
  4 C s       :     0.000135  s :     0.000135
      pz      :     0.000433  p :     0.001067
      px      :     0.000241
      py      :     0.000393
      dz2     :    -0.000006  d :     0.000088
      dxz     :     0.000051
      dyz     :    -0.000013
      dx2y2   :     0.000027
      dxy     :     0.000029
      f0      :    -0.000000  f :     0.000002
      f+1     :     0.000002
      f-1     :    -0.000001
      f+2     :     0.000003
      f-2     :    -0.000001
      f+3     :     0.000001
      f-3     :    -0.000001
  5 C s       :     0.000054  s :     0.000054
      pz      :     0.000274  p :     0.000385
      px      :     0.000018
      py      :     0.000093
      dz2     :    -0.000004  d :     0.000137
      dxz     :    -0.000001
      dyz     :     0.000087
      dx2y2   :     0.000060
      dxy     :    -0.000005
      f0      :    -0.000001  f :     0.000014
      f+1     :     0.000008
      f-1     :     0.000002
      f+2     :     0.000000
      f-2     :     0.000007
      f+3     :    -0.000000
      f-3     :    -0.000001
  6 O s       :     0.000006  s :     0.000006
      pz      :     0.000156  p :     0.000161
      px      :     0.000011
      py      :    -0.000006
      dz2     :     0.000002  d :     0.000018
      dxz     :     0.000012
      dyz     :     0.000000
      dx2y2   :     0.000001
      dxy     :     0.000004
      f0      :     0.000000  f :     0.000001
      f+1     :     0.000000
      f-1     :    -0.000000
      f+2     :     0.000000
      f-2     :     0.000000
      f+3     :     0.000000
      f-3     :     0.000000
  7 O s       :     0.000058  s :     0.000058
      pz      :     0.000026  p :     0.000282
      px      :    -0.000059
      py      :     0.000315
      dz2     :     0.000000  d :     0.000022
      dxz     :     0.000003
      dyz     :     0.000001
      dx2y2   :    -0.000002
      dxy     :     0.000019
      f0      :     0.000000  f :     0.000001
      f+1     :     0.000000
      f-1     :     0.000000
      f+2     :     0.000000
      f-2     :     0.000000
      f+3     :     0.000001
      f-3     :    -0.000000
  8 C s       :     0.000187  s :     0.000187
      pz      :     0.001393  p :     0.003738
      px      :     0.000104
      py      :     0.002240
      dz2     :    -0.000047  d :    -0.000010
      dxz     :    -0.000043
      dyz     :     0.000076
      dx2y2   :    -0.000045
      dxy     :     0.000050
      f0      :     0.000015  f :     0.000026
      f+1     :    -0.000000
      f-1     :    -0.000001
      f+2     :    -0.000002
      f-2     :     0.000006
      f+3     :     0.000004
      f-3     :     0.000004
  9 C s       :    -0.000205  s :    -0.000205
      pz      :    -0.000112  p :     0.003637
      px      :     0.000596
      py      :     0.003154
      dz2     :     0.001517  d :     0.005754
      dxz     :     0.000072
      dyz     :    -0.000028
      dx2y2   :     0.003443
      dxy     :     0.000751
      f0      :     0.000242  f :     0.000694
      f+1     :     0.000040
      f-1     :     0.000160
      f+2     :     0.000118
      f-2     :     0.000039
      f+3     :     0.000035
      f-3     :     0.000060
 10 N s       :     0.023810  s :     0.023810
      pz      :     0.012245  p :     0.053648
      px      :     0.001539
      py      :     0.039865
      dz2     :    -0.000181  d :     0.001150
      dxz     :    -0.000301
      dyz     :     0.000804
      dx2y2   :     0.001046
      dxy     :    -0.000218
      f0      :     0.000011  f :     0.000232
      f+1     :     0.000024
      f-1     :    -0.000005
      f+2     :     0.000187
      f-2     :     0.000015
      f+3     :    -0.000015
      f-3     :     0.000015
 11 H s       :     0.009307  s :     0.009307
      pz      :     0.000064  p :     0.002087
      px      :     0.000609
      py      :     0.001414
 12 H s       :     0.000000  s :     0.000000
      pz      :     0.000011  p :     0.000015
      px      :     0.000002
      py      :     0.000001
 13 H s       :     0.000015  s :     0.000015
      pz      :     0.000015  p :     0.000035
      px      :     0.000005
      py      :     0.000015
 14 H s       :     0.000002  s :     0.000002
      pz      :     0.000007  p :     0.000008
      px      :    -0.000000
      py      :     0.000002
 15 H s       :     0.001283  s :     0.001283
      pz      :    -0.000002  p :     0.000137
      px      :     0.000066
      py      :     0.000073
 16 H s       :     0.000125  s :     0.000125
      pz      :     0.000017  p :     0.000069
      px      :     0.000004
      py      :     0.000048
 17 H s       :     0.001756  s :     0.001756
      pz      :     0.000021  p :     0.000508
      px      :     0.000053
      py      :     0.000435
 18 H s       :     0.000381  s :     0.000381
      pz      :    -0.000017  p :     0.000159
      px      :     0.000068
      py      :     0.000108
 19 H s       :     0.003014  s :     0.003014
      pz      :     0.000105  p :     0.000267
      px      :     0.000082
      py      :     0.000079
 20 H s       :     0.001580  s :     0.001580
      pz      :     0.000900  p :     0.002769
      px      :     0.000455
      py      :     0.001414
 21 H s       :     0.003659  s :     0.003659
      pz      :     0.001840  p :     0.003105
      px      :     0.000228
      py      :     0.001038
 22 Cus       :     0.631724  s :     0.631724
      pz      :     0.024553  p :     0.138535
      px      :     0.000298
      py      :     0.113684
      dz2     :     0.004091  d :     0.091550
      dxz     :     0.000095
      dyz     :     0.042040
      dx2y2   :     0.043682
      dxy     :     0.001642
      f0      :     0.000003  f :     0.000013
      f+1     :    -0.000000
      f-1     :     0.000000
      f+2     :     0.000006
      f-2     :     0.000000
      f+3     :    -0.000000
      f-3     :     0.000004


                      *****************************
                      * MAYER POPULATION ANALYSIS *
                      *****************************

  NA   - Mulliken gross atomic population
  ZA   - Total nuclear charge
  QA   - Mulliken gross atomic charge
  VA   - Mayer's total valence
  BVA  - Mayer's bonded valence
  FA   - Mayer's free valence

  ATOM       NA         ZA         QA         VA         BVA        FA
  0 C      6.2569     6.0000    -0.2569     3.7889     3.7881     0.0009
  1 C      6.1898     6.0000    -0.1898     3.9813     3.9813    -0.0000
  2 C      5.7482     6.0000     0.2518     3.7542     3.7542     0.0000
  3 C      5.9007     6.0000     0.0993     3.7883     3.7883     0.0000
  4 C      6.2026     6.0000    -0.2026     3.9555     3.9555     0.0000
  5 C      5.8900     6.0000     0.1100     4.1355     4.1355     0.0000
  6 O      8.3477     8.0000    -0.3477     2.1670     2.1670     0.0000
  7 O      8.4063     8.0000    -0.4063     2.0954     2.0954     0.0000
  8 C      6.1933     6.0000    -0.1933     3.8038     3.8038     0.0001
  9 C      6.0951     6.0000    -0.0951     3.8688     3.8688     0.0000
 10 N      7.3912     7.0000    -0.3912     3.1580     3.1543     0.0037
 11 H      0.9093     1.0000     0.0907     1.0429     1.0406     0.0022
 12 H      0.8997     1.0000     0.1003     0.9841     0.9841     0.0000
 13 H      0.9115     1.0000     0.0885     0.9722     0.9722     0.0000
 14 H      0.6793     1.0000     0.3207     0.9226     0.9226     0.0000
 15 H      0.6796     1.0000     0.3204     0.9218     0.9218     0.0000
 16 H      0.8856     1.0000     0.1144     0.9727     0.9727     0.0000
 17 H      0.8717     1.0000     0.1283     0.9942     0.9942    -0.0000
 18 H      0.8817     1.0000     0.1183     0.9784     0.9783     0.0000
 19 H      0.8894     1.0000     0.1106     0.9679     0.9679     0.0000
 20 H      0.7428     1.0000     0.2572     0.9352     0.9352     0.0000
 21 H      0.7619     1.0000     0.2381     0.9435     0.9434     0.0000
 22 Cu    29.2657    29.0000    -0.2657     1.4092     0.5161     0.8931

  Mayer bond orders larger than 0.100000
B(  0-C ,  2-C ) :   1.3507 B(  0-C ,  3-C ) :   1.3579 B(  0-C , 11-H ) :   0.8925 
B(  1-C ,  4-C ) :   1.4156 B(  1-C ,  5-C ) :   1.4241 B(  1-C , 12-H ) :   0.9767 
B(  2-C ,  5-C ) :   1.2575 B(  2-C ,  7-O ) :   1.0674 B(  3-C ,  4-C ) :   1.3454 
B(  3-C ,  8-C ) :   0.9014 B(  4-C , 13-H ) :   0.9859 B(  5-C ,  6-O ) :   1.2310 
B(  6-O , 14-H ) :   0.8645 B(  7-O , 15-H ) :   0.8754 B(  8-C ,  9-C ) :   1.0001 
B(  8-C , 16-H ) :   0.9458 B(  8-C , 17-H ) :   0.9610 B(  9-C , 10-N ) :   0.9605 
B(  9-C , 18-H ) :   0.9438 B(  9-C , 19-H ) :   0.9467 B( 10-N , 20-H ) :   0.9015 
B( 10-N , 21-H ) :   0.9141 B( 10-N , 22-Cu) :   0.3808 

-------
TIMINGS
-------

Total SCF time: 0 days 0 hours 0 min 16 sec 

Total time                  ....      16.211 sec
Sum of individual times     ....      15.675 sec  ( 96.7%)

Fock matrix formation       ....      12.898 sec  ( 79.6%)
  Split-RI-J                ....       3.387 sec  ( 26.3% of F)
  XC integration            ....       9.275 sec  ( 71.9% of F)
    Basis function eval.    ....       1.501 sec  ( 16.2% of XC)
    Density eval.           ....       4.194 sec  ( 45.2% of XC)
    XC-Functional eval.     ....       0.150 sec  (  1.6% of XC)
    XC-Potential eval.      ....       2.928 sec  ( 31.6% of XC)
Diagonalization             ....       1.343 sec  (  8.3%)
Density matrix formation    ....       0.052 sec  (  0.3%)
Population analysis         ....       0.095 sec  (  0.6%)
Initial guess               ....       0.143 sec  (  0.9%)
Orbital Transformation      ....       0.000 sec  (  0.0%)
Orbital Orthonormalization  ....       0.117 sec  (  0.7%)
DIIS solution               ....       0.491 sec  (  3.0%)
Grid generation             ....       0.653 sec  (  4.0%)

Maximum memory used throughout the entire SCF-calculation: 60.7 MB


-------------------------------------------------------------------------------
                          DFT DISPERSION CORRECTION                            
                                                                               
                              DFTD3 V3.1  Rev 1                                
                          USING Becke-Johnson damping                          
-------------------------------------------------------------------------------
The PBE functional is recognized
Active option DFTDOPT                   ...         4   

molecular C6(AA) [au] = 6560.104833 


            DFT-D V3
 parameters
 s6 scaling factor         :     1.0000 
 a1 scaling factor         :     0.4289 
 s8 scaling factor         :     0.7875 
 a2 scaling factor         :     4.4407 
 ad hoc parameters k1-k3   :    16.0000     1.3333    -4.0000 

 Edisp/kcal,au: -17.278865211609  -0.027535621505 
 E6   /kcal   : -11.993743056 
 E8   /kcal   :  -5.285122156 
 % E8         :  30.587206342 

-------------------------   ----------------
Dispersion correction           -0.027535622
-------------------------   ----------------


-------------------------   --------------------
FINAL SINGLE POINT ENERGY     -2156.544206907421
-------------------------   --------------------

                                *** OPTIMIZATION RUN DONE ***

                            ***************************************
                            *     ORCA property calculations      *
                            ***************************************

                                    ---------------------
                                    Active property flags
                                    ---------------------
   (+) Dipole Moment


------------------------------------------------------------------------------
                       ORCA ELECTRIC PROPERTIES CALCULATION
------------------------------------------------------------------------------

Dipole Moment Calculation                       ... on
Quadrupole Moment Calculation                   ... off
Polarizability Calculation                      ... off
GBWName                                         ... ex_job5.gbw
Electron density                                ... ex_job5.scfp
The origin for moment calculation is the CENTER OF MASS  = ( 1.498071, -1.567978  0.000004)

-------------
DIPOLE MOMENT
-------------
                                X             Y             Z
Electronic contribution:      7.40383     -18.11114       0.50178
Nuclear contribution   :     -7.14464      19.01579       0.00192
                        -----------------------------------------
Total Dipole Moment    :      0.25919       0.90466       0.50370
                        -----------------------------------------
Magnitude (a.u.)       :      1.06738
Magnitude (Debye)      :      2.71306



--------------------
Rotational spectrum 
--------------------
 
Rotational constants in cm-1:     0.039976     0.013198     0.010642 
Rotational constants in MHz :  1198.436866   395.669161   319.050560 

 Dipole components along the rotational axes: 
x,y,z [a.u.] :    -0.177185     0.902110     0.542310 
x,y,z [Debye]:    -0.450369     2.292982     1.378443 

 

Timings for individual modules:

Sum of individual times         ...      401.497 sec (=   6.692 min)
GTO integral calculation        ...        9.376 sec (=   0.156 min)   2.3 %
SCF iterations                  ...      282.613 sec (=   4.710 min)  70.4 %
SCF Gradient evaluation         ...      108.569 sec (=   1.809 min)  27.0 %
Geometry relaxation             ...        0.939 sec (=   0.016 min)   0.2 %



                             ****ORCA TERMINATED NORMALLY****
TOTAL RUN TIME: 0 days 0 hours 47 minutes 41 seconds 234 msec
