
                                 *****************
                                 * O   R   C   A *
                                 *****************

                                            #,                                       
                                            ###                                      
                                            ####                                     
                                            #####                                    
                                            ######                                   
                                           ########,                                 
                                     ,,################,,,,,                         
                               ,,#################################,,                 
                          ,,##########################################,,             
                       ,#########################################, ''#####,          
                    ,#############################################,,   '####,        
                  ,##################################################,,,,####,       
                ,###########''''           ''''###############################       
              ,#####''   ,,,,##########,,,,          '''####'''          '####       
            ,##' ,,,,###########################,,,                        '##       
           ' ,,###''''                  '''############,,,                           
         ,,##''                                '''############,,,,        ,,,,,,###''
      ,#''                                            '''#######################'''  
     '                                                          ''''####''''         
             ,#######,   #######,   ,#######,      ##                                
            ,#'     '#,  ##    ##  ,#'     '#,    #''#        ######   ,####,        
            ##       ##  ##   ,#'  ##            #'  '#       #        #'  '#        
            ##       ##  #######   ##           ,######,      #####,   #    #        
            '#,     ,#'  ##    ##  '#,     ,#' ,#      #,         ##   #,  ,#        
             '#######'   ##     ##  '#######'  #'      '#     #####' # '####'        



                  #######################################################
                  #                        -***-                        #
                  #          Department of theory and spectroscopy      #
                  #    Directorship and core code : Frank Neese         #
                  #        Max Planck Institute fuer Kohlenforschung    #
                  #                Kaiser Wilhelm Platz 1               #
                  #                 D-45470 Muelheim/Ruhr               #
                  #                      Germany                        #
                  #                                                     #
                  #                  All rights reserved                #
                  #                        -***-                        #
                  #######################################################


                         Program Version 5.0.1 -  RELEASE  -


 With contributions from (in alphabetic order):
   Daniel Aravena         : Magnetic Suceptibility
   Michael Atanasov       : Ab Initio Ligand Field Theory (pilot matlab implementation)
   Alexander A. Auer      : GIAO ZORA, VPT2 properties, NMR spectrum
   Ute Becker             : Parallelization
   Giovanni Bistoni       : ED, misc. LED, open-shell LED, HFLD
   Martin Brehm           : Molecular dynamics
   Dmytro Bykov           : SCF Hessian
   Vijay G. Chilkuri      : MRCI spin determinant printing, contributions to CSF-ICE
   Dipayan Datta          : RHF DLPNO-CCSD density
   Achintya Kumar Dutta   : EOM-CC, STEOM-CC
   Dmitry Ganyushin       : Spin-Orbit,Spin-Spin,Magnetic field MRCI
   Miquel Garcia          : C-PCM and meta-GGA Hessian, CC/C-PCM, Gaussian charge scheme
   Yang Guo               : DLPNO-NEVPT2, F12-NEVPT2, CIM, IAO-localization
   Andreas Hansen         : Spin unrestricted coupled pair/coupled cluster methods
   Benjamin Helmich-Paris : MC-RPA, TRAH-SCF, COSX integrals
   Lee Huntington         : MR-EOM, pCC
   Robert Izsak           : Overlap fitted RIJCOSX, COSX-SCS-MP3, EOM
   Marcus Kettner         : VPT2
   Christian Kollmar      : KDIIS, OOCD, Brueckner-CCSD(T), CCSD density, CASPT2, CASPT2-K
   Simone Kossmann        : Meta GGA functionals, TD-DFT gradient, OOMP2, MP2 Hessian
   Martin Krupicka        : Initial AUTO-CI
   Lucas Lang             : DCDCAS
   Marvin Lechner         : AUTO-CI (C++ implementation), FIC-MRCC
   Dagmar Lenk            : GEPOL surface, SMD
   Dimitrios Liakos       : Extrapolation schemes; Compound Job, initial MDCI parallelization
   Dimitrios Manganas     : Further ROCIS development; embedding schemes
   Dimitrios Pantazis     : SARC Basis sets
   Anastasios Papadopoulos: AUTO-CI, single reference methods and gradients
   Taras Petrenko         : DFT Hessian,TD-DFT gradient, ASA, ECA, R-Raman, ABS, FL, XAS/XES, NRVS
   Peter Pinski           : DLPNO-MP2, DLPNO-MP2 Gradient
   Christoph Reimann      : Effective Core Potentials
   Marius Retegan         : Local ZFS, SOC
   Christoph Riplinger    : Optimizer, TS searches, QM/MM, DLPNO-CCSD(T), (RO)-DLPNO pert. Triples
   Tobias Risthaus        : Range-separated hybrids, TD-DFT gradient, RPA, STAB
   Michael Roemelt        : Original ROCIS implementation
   Masaaki Saitow         : Open-shell DLPNO-CCSD energy and density
   Barbara Sandhoefer     : DKH picture change effects
   Avijit Sen             : IP-ROCIS
   Kantharuban Sivalingam : CASSCF convergence, NEVPT2, FIC-MRCI
   Bernardo de Souza      : ESD, SOC TD-DFT
   Georgi Stoychev        : AutoAux, RI-MP2 NMR, DLPNO-MP2 response
   Willem Van den Heuvel  : Paramagnetic NMR
   Boris Wezisla          : Elementary symmetry handling
   Frank Wennmohs         : Technical directorship


 We gratefully acknowledge several colleagues who have allowed us to
 interface, adapt or use parts of their codes:
   Stefan Grimme, W. Hujo, H. Kruse, P. Pracht,  : VdW corrections, initial TS optimization,
                  C. Bannwarth, S. Ehlert          DFT functionals, gCP, sTDA/sTD-DF
   Ed Valeev, F. Pavosevic, A. Kumar             : LibInt (2-el integral package), F12 methods
   Garnet Chan, S. Sharma, J. Yang, R. Olivares  : DMRG
   Ulf Ekstrom                                   : XCFun DFT Library
   Mihaly Kallay                                 : mrcc  (arbitrary order and MRCC methods)
   Jiri Pittner, Ondrej Demel                    : Mk-CCSD
   Frank Weinhold                                : gennbo (NPA and NBO analysis)
   Christopher J. Cramer and Donald G. Truhlar   : smd solvation model
   Lars Goerigk                                  : TD-DFT with DH, B97 family of functionals
   V. Asgeirsson, H. Jonsson                     : NEB implementation
   FAccTs GmbH                                   : IRC, NEB, NEB-TS, DLPNO-Multilevel, CI-OPT
                                                   MM, QMMM, 2- and 3-layer-ONIOM, Crystal-QMMM,
                                                   LR-CPCM, SF, NACMEs, symmetry and pop. for TD-DFT,
                                                   nearIR, NL-DFT gradient (VV10), updates on ESD,
                                                   ML-optimized integration grids
   S Lehtola, MJT Oliveira, MAL Marques          : LibXC Library
   Liviu Ungur et al                             : ANISO software


 Your calculation uses the libint2 library for the computation of 2-el integrals
 For citations please refer to: http://libint.valeyev.net

 Your ORCA version has been built with support for libXC version: 5.1.0
 For citations please refer to: https://tddft.org/programs/libxc/

 This ORCA versions uses:
   CBLAS   interface :  Fast vector & matrix operations
   LAPACKE interface :  Fast linear algebra routines
   SCALAPACK package :  Parallel linear algebra routines
   Shared memory     :  Shared parallel matrices
   BLAS/LAPACK       :  OpenBLAS 0.3.15  USE64BITINT DYNAMIC_ARCH NO_AFFINITY Haswell SINGLE_THREADED
        Core in use  :  Haswell
   Copyright (c) 2011-2014, The OpenBLAS Project


Your calculation utilizes the atom-pairwise dispersion correction
with the Becke-Johnson damping scheme (D3BJ)
Cite in your paper:
S.Grimme, S.Ehrlich, L.Goerigk, J Comput Chem, (2011), 32, 1456–1465 
S.Grimme, J.Antony, S.Ehrlich and H.Krieg, J.Chem.Phys., 132, (2010), 154104 
   

================================================================================

----- Orbital basis set information -----
Your calculation utilizes the basis: def2-TZVP
   F. Weigend and R. Ahlrichs, Phys. Chem. Chem. Phys. 7, 3297 (2005).

----- AuxJ basis set information -----
Your calculation utilizes the auxiliary basis: def2/J
   F. Weigend, Phys. Chem. Chem. Phys. 8, 1057 (2006).

================================================================================
                                        WARNINGS
                       Please study these warnings very carefully!
================================================================================


WARNING: your system is open-shell and RHF/RKS was chosen
  ===> : WILL SWITCH to UHF/UKS


WARNING: The environment variable RSH_COMMAND is not set!
  ===> : All Displacements for the Numerical Hessian calculation
         will be started on localhost

WARNING: Geometry Optimization
  ===> : Switching off AutoStart
         For restart on a previous wavefunction, please use MOREAD

INFO   : the flag for use of the SHARK integral package has been found!

Your calculation utilizes the atom-pairwise dispersion correction
with the Becke-Johnson damping scheme (D3BJ)
Cite in your paper:
S.Grimme, S.Ehrlich, L.Goerigk, J Comput Chem, (2011), 32, 1456–1465 
S.Grimme, J.Antony, S.Ehrlich and H.Krieg, J.Chem.Phys., 132, (2010), 154104 
   

================================================================================

----- Orbital basis set information -----
Your calculation utilizes the basis: def2-TZVP
   F. Weigend and R. Ahlrichs, Phys. Chem. Chem. Phys. 7, 3297 (2005).

----- AuxJ basis set information -----
Your calculation utilizes the auxiliary basis: def2/J
   F. Weigend, Phys. Chem. Chem. Phys. 8, 1057 (2006).

================================================================================
                                        WARNINGS
                       Please study these warnings very carefully!
================================================================================


WARNING: The environment variable RSH_COMMAND is not set!
  ===> : All Displacements for the Numerical Hessian calculation
         will be started on localhost

WARNING: Geometry Optimization
  ===> : Switching off AutoStart
         For restart on a previous wavefunction, please use MOREAD

INFO   : the flag for use of the SHARK integral package has been found!

Your calculation utilizes the atom-pairwise dispersion correction
with the Becke-Johnson damping scheme (D3BJ)
Cite in your paper:
S.Grimme, S.Ehrlich, L.Goerigk, J Comput Chem, (2011), 32, 1456–1465 
S.Grimme, J.Antony, S.Ehrlich and H.Krieg, J.Chem.Phys., 132, (2010), 154104 
   

================================================================================

----- Orbital basis set information -----
Your calculation utilizes the basis: def2-TZVP
   F. Weigend and R. Ahlrichs, Phys. Chem. Chem. Phys. 7, 3297 (2005).

----- AuxJ basis set information -----
Your calculation utilizes the auxiliary basis: def2/J
   F. Weigend, Phys. Chem. Chem. Phys. 8, 1057 (2006).

================================================================================
                                        WARNINGS
                       Please study these warnings very carefully!
================================================================================


WARNING: The environment variable RSH_COMMAND is not set!
  ===> : All Displacements for the Numerical Hessian calculation
         will be started on localhost

WARNING: Geometry Optimization
  ===> : Switching off AutoStart
         For restart on a previous wavefunction, please use MOREAD

INFO   : the flag for use of the SHARK integral package has been found!

Your calculation utilizes the atom-pairwise dispersion correction
with the Becke-Johnson damping scheme (D3BJ)
Cite in your paper:
S.Grimme, S.Ehrlich, L.Goerigk, J Comput Chem, (2011), 32, 1456–1465 
S.Grimme, J.Antony, S.Ehrlich and H.Krieg, J.Chem.Phys., 132, (2010), 154104 
   

================================================================================

----- Orbital basis set information -----
Your calculation utilizes the basis: def2-TZVP
   F. Weigend and R. Ahlrichs, Phys. Chem. Chem. Phys. 7, 3297 (2005).

----- AuxJ basis set information -----
Your calculation utilizes the auxiliary basis: def2/J
   F. Weigend, Phys. Chem. Chem. Phys. 8, 1057 (2006).

================================================================================
                                        WARNINGS
                       Please study these warnings very carefully!
================================================================================


WARNING: The environment variable RSH_COMMAND is not set!
  ===> : All Displacements for the Numerical Hessian calculation
         will be started on localhost

WARNING: Geometry Optimization
  ===> : Switching off AutoStart
         For restart on a previous wavefunction, please use MOREAD

INFO   : the flag for use of the SHARK integral package has been found!

Your calculation utilizes the atom-pairwise dispersion correction
with the Becke-Johnson damping scheme (D3BJ)
Cite in your paper:
S.Grimme, S.Ehrlich, L.Goerigk, J Comput Chem, (2011), 32, 1456–1465 
S.Grimme, J.Antony, S.Ehrlich and H.Krieg, J.Chem.Phys., 132, (2010), 154104 
   

================================================================================

----- Orbital basis set information -----
Your calculation utilizes the basis: def2-TZVP
   F. Weigend and R. Ahlrichs, Phys. Chem. Chem. Phys. 7, 3297 (2005).

----- AuxJ basis set information -----
Your calculation utilizes the auxiliary basis: def2/J
   F. Weigend, Phys. Chem. Chem. Phys. 8, 1057 (2006).

================================================================================
                                        WARNINGS
                       Please study these warnings very carefully!
================================================================================


WARNING: The environment variable RSH_COMMAND is not set!
  ===> : All Displacements for the Numerical Hessian calculation
         will be started on localhost

WARNING: Geometry Optimization
  ===> : Switching off AutoStart
         For restart on a previous wavefunction, please use MOREAD

INFO   : the flag for use of the SHARK integral package has been found!

================================================================================
                                       INPUT FILE
================================================================================
NAME = ex.inp
|  1> ! PBE D3 def2-TZVP opt numfreq
|  2> %base "1_neutral"
|  3> %pal nprocs=8 end
|  4> %geom maxiter=75 end
|  5> *xyz 0 2 
|  6> C      0.00559   -0.84900   -0.48207
|  7> C     -1.14562    1.63764    0.02583
|  8> C     -1.33011   -0.77476   -0.08961
|  9> C      0.78526    0.30825   -0.62683
| 10> C      0.19248    1.55080   -0.36725
| 11> C     -1.90663    0.48099    0.16753
| 12> O     -3.23499    0.45535    0.54583
| 13> O     -2.06914   -1.91741    0.03888
| 14> C      2.24736    0.21069   -0.97276
| 15> C      3.15269    0.19459    0.28321
| 16> N      2.95398   -0.91353    1.21381
| 17> H      0.42783   -1.83433   -0.68843
| 18> H     -1.60258    2.61219    0.21960
| 19> H      0.77927    2.46486   -0.47605
| 20> H     -3.54095    1.36563    0.69428
| 21> H     -2.96671   -1.64928    0.31468
| 22> H      2.54112    1.06407   -1.60649
| 23> H      2.43623   -0.70461   -1.55753
| 24> H      4.20641    0.18752   -0.03902
| 25> H      3.00040    1.13395    0.83920
| 26> H      3.12571   -1.80403    0.74032
| 27> H      1.97664   -0.93777    1.51697
| 28> Cu    -5.99454   -0.49941    1.13838
| 29> *
| 30> 
| 31> $new_job
| 32> 
| 33> ! PBE D3 def2-TZVP opt numfreq 
| 34> %base "2_protonated"
| 35> %pal nprocs=8 end
| 36> %geom maxiter=75 end
| 37> *xyz 1 2
| 38> C     -1.17699   -1.60635    0.21153
| 39> C      0.05430    0.76537   -0.59240
| 40> C     -1.89164   -0.41153    0.24864
| 41> C      0.15423   -1.62364   -0.21649
| 42> C      0.78046   -0.44392   -0.62984
| 43> C     -1.27540    0.79152   -0.16193
| 44> O     -3.19062   -0.27781    0.64406
| 45> O     -1.95422    1.96039   -0.15847
| 46> C      2.24399   -0.42394   -0.99999
| 47> C      3.11172   -0.24467    0.25146
| 48> N      2.62510    0.97350    1.01239
| 49> H      1.57449    0.97651    0.93726
| 50> H      2.90818    0.96715    2.00041
| 51> H      2.96307    1.84717    0.58617
| 52> H     -1.66430   -2.53613    0.51405
| 53> H      0.47251    1.69247   -0.99593
| 54> H      0.69338   -2.57192   -0.24701
| 55> H     -3.58401   -1.14591    0.84219
| 56> H     -2.87225    1.78236    0.12991
| 57> H      2.45755    0.37896   -1.72345
| 58> H      2.55108   -1.36666   -1.47424
| 59> H      2.99426   -1.09553    0.93406
| 60> H      4.17647   -0.10042    0.02936
| 61> Cu    -5.82487    2.08491    1.00494
| 62> *
| 63> 
| 64> $new_job
| 65> 
| 66> ! PBE D3 def2-TZVP opt numfreq 
| 67> %base "3_deprotonated"
| 68> %pal nprocs=8 end
| 69> %geom maxiter=75 end
| 70> *xyz -1 2 
| 71> O      2.37686   -1.81267   -0.06650
| 72> O      3.24099    0.51520   -0.52449
| 73> N     -3.03433    0.36663   -1.35028
| 74> C     -2.18680   -0.14342    0.99469
| 75> C     -0.73819    0.07497    0.64719
| 76> C     -3.04282   -0.57094   -0.21837
| 77> C      0.13672   -1.03264    0.49295
| 78> C     -0.23298    1.35438    0.38958
| 79> C      1.44628   -0.82997    0.10049
| 80> C      1.09821    1.57029   -0.01199
| 81> C      1.99489    0.48709   -0.17409
| 82> H     -2.61300    0.78998    1.40780
| 83> H     -2.29242   -0.91496    1.78198
| 84> H     -4.09182   -0.72855    0.09266
| 85> H     -2.67025   -1.54051   -0.58863
| 86> H     -0.21942   -2.04996    0.68988
| 87> H     -0.89906    2.21623    0.51616
| 88> H      1.46559    2.58432   -0.19441
| 89> H     -2.04631    0.54836   -1.56938
| 90> H     -3.38020    1.27190   -1.01332
| 91> H      3.15028   -1.20010   -0.33952
| 92> Cu     6.11473   -0.45857   -1.03923
| 93> *
| 94> 
| 95> $new_job
| 96> 
| 97> ! PBE D3 def2-TZVP opt numfreq 
| 98> %base "4_2x_deprotonated"
| 99> %pal nprocs=8 end
|100> %geom maxiter=75 end
|101> *xyz -2 2
|102> O     -2.04541   -2.00882   -0.09340
|103> O     -3.33298    0.49041   -0.60374
|104> N      2.76830   -0.98650   -1.17658
|105> C      2.17495    0.33406    0.91521
|106> C      0.71063    0.37700    0.58365
|107> C      3.08869    0.17209   -0.32293
|108> C     -0.03810   -0.82481    0.41109
|109> C      0.05466    1.59261    0.35530
|110> C     -1.41523   -0.89879    0.01611
|111> C     -1.29680    1.60308   -0.05598
|112> C     -2.10220    0.43189   -0.25169
|113> H      2.48760    1.26215    1.44138
|114> H      2.39989   -0.51386    1.60323
|115> H      4.15855    0.09744   -0.01239
|116> H      2.99336    1.08212   -0.94138
|117> H      0.43923   -1.79150    0.64252
|118> H      0.60669    2.53778    0.47627
|119> H     -1.80954    2.56280   -0.22347
|120> H      1.73658   -0.95617   -1.27291
|121> H      2.89903   -1.82262   -0.59194
|122> Cu    -5.41075   -1.61128   -1.15204
|123> *
|124> 
|125> $new_job
|126> 
|127> ! PBE D3 def2-TZVP opt numfreq 
|128> %base "5_zwitterion"
|129> %pal nprocs=8 end
|130> %geom maxiter=75 end
|131> *xyz 0 2
|132> O      2.73505   -2.10741    0.20340
|133> C      1.96090   -1.01083   -0.06068
|134> C      0.67426   -1.11664   -0.55996
|135> C     -0.10629    0.02665   -0.87653
|136> C     -1.59079   -0.09092   -1.04140
|137> C     -2.22313   -0.30878    0.36307
|138> N     -1.51901    0.62288    1.31690
|139> H     -1.30920    0.20045    2.22537
|140> H     -0.57472    0.85780    0.78047
|141> H     -2.03295    1.49672    1.46742
|142> C      0.48330    1.29252   -0.63537
|143> C      1.77356    1.41768   -0.11556
|144> C      2.59717    0.28597    0.24451
|145> O      3.73892    0.36553    0.74988
|146> H      2.24778   -2.89566   -0.09671
|147> H      0.24826   -2.11589   -0.72898
|148> H     -2.01031    0.82093   -1.49692
|149> H     -1.89487   -0.94154   -1.67070
|150> H     -3.30535   -0.12360    0.41208
|151> H     -2.01269   -1.32725    0.70894
|152> H     -0.07431    2.19454   -0.92022
|153> H      2.22018    2.40436    0.02256
|154> Cu     5.38696   -1.58013    1.28796
|155> **                         ****END OF INPUT****
================================================================================


                 $$$$$$$$$$$$$$$$$$$$$$$$$$$$$$$$$$$$$$$$$$$$$$ 
                 $ THERE ARE  5 JOBS TO BE PROCESSED THIS RUN $
                 $$$$$$$$$$$$$$$$$$$$$$$$$$$$$$$$$$$$$$$$$$$$$$ 




                 $$$$$$$$$$$$$$$$  JOB NUMBER  1 $$$$$$$$$$$$$$


                       *****************************
                       * Geometry Optimization Run *
                       *****************************

Geometry optimization settings:
Update method            Update   .... BFGS
Choice of coordinates    CoordSys .... Z-matrix Internals
Initial Hessian          InHess   .... Almoef's Model

Convergence Tolerances:
Energy Change            TolE     ....  5.0000e-06 Eh
Max. Gradient            TolMAXG  ....  3.0000e-04 Eh/bohr
RMS Gradient             TolRMSG  ....  1.0000e-04 Eh/bohr
Max. Displacement        TolMAXD  ....  4.0000e-03 bohr
RMS Displacement         TolRMSD  ....  2.0000e-03 bohr
Strict Convergence                ....  False
------------------------------------------------------------------------------
                        ORCA OPTIMIZATION COORDINATE SETUP
------------------------------------------------------------------------------

The optimization will be done in new redundant internal coordinates
Making redundant internal coordinates   ...  (new redundants) done
Evaluating the initial hessian          ...  (Almloef) done
Evaluating the coordinates              ...  done
Calculating the B-matrix                .... done
Calculating the G-matrix                .... done
Diagonalizing the G-matrix              .... done
Small eigenvalue found = 1.459e-02
Small eigenvalue found = 2.691e-02
The first mode is                       ....   63
The number of degrees of freedom        ....   63

    -----------------------------------------------------------------
                    Redundant Internal Coordinates


    -----------------------------------------------------------------
         Definition                    Initial Value    Approx d2E/dq
    -----------------------------------------------------------------
      1. B(C   2,C   0)                  1.3941         0.615362   
      2. B(C   3,C   0)                  1.4029         0.595925   
      3. B(C   4,C   3)                  1.4010         0.600131   
      4. B(C   4,C   1)                  1.3973         0.608170   
      5. B(C   5,C   2)                  1.4055         0.590234   
      6. B(C   5,C   1)                  1.3918         0.620722   
      7. B(O   6,C   5)                  1.3814         0.577526   
      8. B(O   7,C   2)                  1.3669         0.609233   
      9. B(C   8,C   3)                  1.5056         0.408562   
     10. B(C   9,C   8)                  1.5483         0.349241   
     11. B(N  10,C   9)                  1.4606         0.431712   
     12. B(H  11,C   0)                  1.0917         0.357896   
     13. B(H  12,C   1)                  1.0937         0.355282   
     14. B(H  13,C   4)                  1.0916         0.357944   
     15. B(H  14,O   6)                  0.9717         0.498027   
     16. B(H  15,O   7)                  0.9765         0.489339   
     17. B(H  16,C   8)                  1.1028         0.343560   
     18. B(H  17,C   8)                  1.1025         0.343998   
     19. B(H  18,C   9)                  1.1019         0.344683   
     20. B(H  19,C   9)                  1.1021         0.344392   
     21. B(H  20,N  10)                  1.0231         0.412421   
     22. B(H  21,N  10)                  1.0236         0.411672   
     23. B(Cu 22,H  15)                  3.3419         0.000931   
     24. B(Cu 22,H  14)                  3.1138         0.002151   
     25. B(Cu 22,O   6)                  2.9796         0.016480   
     26. A(C   2,C   0,H  11)          118.1543         0.352095   
     27. A(C   3,C   0,H  11)          120.6698         0.350191   
     28. A(C   2,C   0,C   3)          121.1706         0.430406   
     29. A(C   4,C   1,H  12)          120.3531         0.350961   
     30. A(C   4,C   1,C   5)          120.0397         0.432655   
     31. A(C   5,C   1,H  12)          119.6067         0.352175   
     32. A(C   0,C   2,O   7)          119.9971         0.429294   
     33. A(C   0,C   2,C   5)          119.4772         0.429665   
     34. A(C   5,C   2,O   7)          120.5255         0.426097   
     35. A(C   4,C   3,C   8)          120.7258         0.400676   
     36. A(C   0,C   3,C   8)          120.6607         0.400180   
     37. A(C   0,C   3,C   4)          118.5130         0.428475   
     38. A(C   1,C   4,C   3)          120.8255         0.430041   
     39. A(C   3,C   4,H  13)          119.7846         0.350615   
     40. A(C   1,C   4,H  13)          119.3895         0.351404   
     41. A(C   1,C   5,O   6)          124.6871         0.425862   
     42. A(C   1,C   5,C   2)          119.9737         0.430335   
     43. A(C   2,C   5,O   6)          115.3379         0.422044   
     44. A(C   5,O   6,H  14)          109.1000         0.362952   
     45. A(H  14,O   6,Cu 22)           88.7497         0.230799   
     46. A(C   5,O   6,Cu 22)          161.9890         0.259127   
     47. A(C   2,O   7,H  15)          107.0961         0.365184   
     48. A(C   9,C   8,H  17)          108.7515         0.318371   
     49. A(C   3,C   8,C   9)          112.4643         0.364732   
     50. A(C   3,C   8,H  17)          110.0007         0.326662   
     51. A(H  16,C   8,H  17)          106.9788         0.286646   
     52. A(C   9,C   8,H  16)          108.5685         0.318305   
     53. A(C   3,C   8,H  16)          109.9113         0.326594   
     54. A(N  10,C   9,H  19)          107.8428         0.327727   
     55. A(C   8,C   9,H  19)          108.6358         0.318431   
     56. A(N  10,C   9,H  18)          108.1521         0.327773   
     57. A(C   8,C   9,H  18)          108.7837         0.318475   
     58. A(C   8,C   9,N  10)          116.4336         0.365895   
     59. A(H  18,C   9,H  19)          106.5661         0.286843   
     60. A(H  20,N  10,H  21)          106.0657         0.298564   
     61. A(C   9,N  10,H  21)          109.6681         0.334670   
     62. A(C   9,N  10,H  20)          110.0382         0.334771   
     63. A(O   6,H  14,Cu 22)           73.0706         0.170599   
     64. L(O   7,H  15,Cu 22,O   6, 2) 177.6619         0.156232   
     65. L(O   7,H  15,Cu 22,O   6, 1) 175.9609         0.156232   
     66. A(H  14,Cu 22,H  15)           57.1131         0.113122   
     67. A(O   6,Cu 22,H  15)           38.9334         0.130918   
     68. A(O   6,Cu 22,H  14)           18.1797         0.139674   
     69. D(O   7,C   2,C   0,C   3)    179.7443         0.026179   
     70. D(O   7,C   2,C   0,H  11)      0.5850         0.026179   
     71. D(C   5,C   2,C   0,C   3)     -0.0806         0.026179   
     72. D(C   5,C   2,C   0,H  11)   -179.2398         0.026179   
     73. D(C   8,C   3,C   0,C   2)    176.4021         0.024464   
     74. D(C   4,C   3,C   0,H  11)    179.1582         0.024464   
     75. D(C   8,C   3,C   0,H  11)     -4.4597         0.024464   
     76. D(C   4,C   3,C   0,C   2)      0.0200         0.024464   
     77. D(H  13,C   4,C   3,C   0)   -179.8327         0.024829   
     78. D(C   1,C   4,C   3,C   8)   -176.4437         0.024829   
     79. D(H  13,C   4,C   1,H  12)      0.2071         0.025536   
     80. D(C   1,C   4,C   3,C   0)     -0.0640         0.024829   
     81. D(C   3,C   4,C   1,H  12)   -179.5625         0.025536   
     82. D(H  13,C   4,C   1,C   5)    179.9396         0.025536   
     83. D(C   3,C   4,C   1,C   5)      0.1700         0.025536   
     84. D(H  13,C   4,C   3,C   8)      3.7877         0.024829   
     85. D(O   6,C   5,C   2,O   7)     -0.0381         0.023975   
     86. D(O   6,C   5,C   2,C   0)    179.7858         0.023975   
     87. D(C   1,C   5,C   2,O   7)   -179.6387         0.023975   
     88. D(O   6,C   5,C   1,H  12)     -0.0563         0.026665   
     89. D(C   1,C   5,C   2,C   0)      0.1852         0.023975   
     90. D(O   6,C   5,C   1,C   4)   -179.7908         0.026665   
     91. D(C   2,C   5,C   1,H  12)    179.5048         0.026665   
     92. D(C   2,C   5,C   1,C   4)     -0.2297         0.026665   
     93. D(Cu 22,O   6,C   5,C   2)     -7.6082         0.026737   
     94. D(Cu 22,O   6,C   5,C   1)    171.9710         0.026737   
     95. D(H  14,O   6,C   5,C   2)   -179.6465         0.026737   
     96. D(H  14,O   6,C   5,C   1)     -0.0673         0.026737   
     97. D(H  15,O   7,C   2,C   5)      0.0743         0.027164   
     98. D(H  15,O   7,C   2,C   0)   -179.7488         0.027164   
     99. D(C   9,C   8,C   3,C   0)    -92.7273         0.012366   
    100. D(H  17,C   8,C   3,C   4)   -155.0472         0.012366   
    101. D(H  17,C   8,C   3,C   0)     28.6511         0.012366   
    102. D(H  16,C   8,C   3,C   4)    -37.5078         0.012366   
    103. D(H  16,C   8,C   3,C   0)    146.1905         0.012366   
    104. D(C   9,C   8,C   3,C   4)     83.5744         0.012366   
    105. D(H  19,C   9,C   8,H  17)    177.1272         0.009830   
    106. D(H  19,C   9,C   8,H  16)     61.0640         0.009830   
    107. D(H  19,C   9,C   8,C   3)    -60.7840         0.009830   
    108. D(H  18,C   9,C   8,H  17)     61.4995         0.009830   
    109. D(H  18,C   9,C   8,H  16)    -54.5637         0.009830   
    110. D(H  18,C   9,C   8,C   3)   -176.4117         0.009830   
    111. D(N  10,C   9,C   8,H  17)    -60.9507         0.009830   
    112. D(N  10,C   9,C   8,H  16)   -177.0139         0.009830   
    113. D(N  10,C   9,C   8,C   3)     61.1381         0.009830   
    114. D(H  21,N  10,C   9,H  19)     66.0205         0.015890   
    115. D(H  21,N  10,C   9,H  18)   -179.0976         0.015890   
    116. D(H  21,N  10,C   9,C   8)    -56.3177         0.015890   
    117. D(H  20,N  10,C   9,H  19)   -177.6723         0.015890   
    118. D(H  20,N  10,C   9,H  18)    -62.7904         0.015890   
    119. D(H  20,N  10,C   9,C   8)     59.9895         0.015890   
    120. D(Cu 22,H  14,O   6,C   5)    177.5448         0.309399   
    121. D(H  15,Cu 22,H  14,O   6)      0.1071         0.001500   
    122. D(H  14,Cu 22,O   7,C   2)     -1.9241         0.001500   
    123. D(O   6,Cu 22,O   7,C   2)     -2.1634         0.001500   
    124. D(H  15,Cu 22,O   6,H  14)   -179.8569         0.001502   
    125. D(H  15,Cu 22,O   6,C   5)      7.6656         0.001502   
    126. D(H  14,Cu 22,O   6,C   5)   -172.4774         0.001502   
    -----------------------------------------------------------------

Number of atoms                         .... 23
Number of degrees of freedom            .... 126

         *************************************************************
         *                GEOMETRY OPTIMIZATION CYCLE   1            *
         *************************************************************
---------------------------------
CARTESIAN COORDINATES (ANGSTROEM)
---------------------------------
  C      0.005590   -0.849000   -0.482070
  C     -1.145620    1.637640    0.025830
  C     -1.330110   -0.774760   -0.089610
  C      0.785260    0.308250   -0.626830
  C      0.192480    1.550800   -0.367250
  C     -1.906630    0.480990    0.167530
  O     -3.234990    0.455350    0.545830
  O     -2.069140   -1.917410    0.038880
  C      2.247360    0.210690   -0.972760
  C      3.152690    0.194590    0.283210
  N      2.953980   -0.913530    1.213810
  H      0.427830   -1.834330   -0.688430
  H     -1.602580    2.612190    0.219600
  H      0.779270    2.464860   -0.476050
  H     -3.540950    1.365630    0.694280
  H     -2.966710   -1.649280    0.314680
  H      2.541120    1.064070   -1.606490
  H      2.436230   -0.704610   -1.557530
  H      4.206410    0.187520   -0.039020
  H      3.000400    1.133950    0.839200
  H      3.125710   -1.804030    0.740320
  H      1.976640   -0.937770    1.516970
  Cu    -5.994540   -0.499410    1.138380

----------------------------
CARTESIAN COORDINATES (A.U.)
----------------------------
  NO LB      ZA    FRAG     MASS         X           Y           Z
   0 C     6.0000    0    12.011    0.010564   -1.604377   -0.910980
   1 C     6.0000    0    12.011   -2.164908    3.094691    0.048812
   2 C     6.0000    0    12.011   -2.513544   -1.464084   -0.169338
   3 C     6.0000    0    12.011    1.483926    0.582508   -1.184537
   4 C     6.0000    0    12.011    0.363734    2.930587   -0.694002
   5 C     6.0000    0    12.011   -3.603009    0.908939    0.316586
   6 O     8.0000    0    15.999   -6.113245    0.860487    1.031469
   7 O     8.0000    0    15.999   -3.910108   -3.623380    0.073473
   8 C     6.0000    0    12.011    4.246895    0.398146   -1.838250
   9 C     6.0000    0    12.011    5.957721    0.367722    0.535189
  10 N     7.0000    0    14.007    5.582213   -1.726322    2.293768
  11 H     1.0000    0     1.008    0.808482   -3.466381   -1.300944
  12 H     1.0000    0     1.008   -3.028437    4.936324    0.414984
  13 H     1.0000    0     1.008    1.472607    4.657910   -0.899604
  14 H     1.0000    0     1.008   -6.691426    2.580667    1.311999
  15 H     1.0000    0     1.008   -5.606269   -3.116688    0.594659
  16 H     1.0000    0     1.008    4.802021    2.010801   -3.035826
  17 H     1.0000    0     1.008    4.603807   -1.331520   -2.943305
  18 H     1.0000    0     1.008    7.948963    0.354361   -0.073737
  19 H     1.0000    0     1.008    5.669934    2.142855    1.585858
  20 H     1.0000    0     1.008    5.906736   -3.409123    1.399002
  21 H     1.0000    0     1.008    3.735308   -1.772128    2.866658
  22 Cu   29.0000    0    63.550  -11.328039   -0.943748    2.151226

--------------------------------
INTERNAL COORDINATES (ANGSTROEM)
--------------------------------
 C      0   0   0     0.000000000000     0.00000000     0.00000000
 C      1   0   0     2.786866585199     0.00000000     0.00000000
 C      1   2   0     1.394141642445    60.35752271     0.00000000
 C      1   2   3     1.402878586692    60.81304021   180.01137810
 C      2   1   3     1.397342006096    59.84840184   179.95646041
 C      2   1   3     1.391780993045    60.19142770     0.09339920
 O      6   2   1     1.381415429623   124.68710616   180.34602786
 O      3   1   2     1.366866505369   119.99709978   179.73268428
 C      4   1   2     1.505630076911   120.66070037   176.41369739
 C      9   4   1     1.548335318915   112.46426800   267.27271756
 N     10   9   4     1.460627248308   116.43359879    61.13811533
 H      1   2   3     1.091671322377   178.33519787    26.83662591
 H      2   1   3     1.093666748603   179.59644749   300.01487419
 H      5   2   1     1.091634383711   119.38947362   179.80229800
 H      7   6   2     0.971729696212   109.09995838   359.93271528
 H      8   3   1     0.976519964875   107.09609435   180.25124946
 H      9   4   1     1.102799199719   109.91130920   146.19054760
 H      9   4   1     1.102452683701   110.00068181    28.65109604
 H     10   9   4     1.101911065468   108.78369909   183.58834454
 H     10   9   4     1.102140795815   108.63583876   299.21604279
 H     11  10   9     1.023070976521   110.03824636    59.98948980
 H     11  10   9     1.023565844878   109.66805325   303.68230086
 Cu     7   6   2     2.979563451682   161.98895481   171.97101698

---------------------------
INTERNAL COORDINATES (A.U.)
---------------------------
 C      0   0   0     0.000000000000     0.00000000     0.00000000
 C      1   0   0     5.266414617803     0.00000000     0.00000000
 C      1   2   0     2.634545896117    60.35752271     0.00000000
 C      1   2   3     2.651056327991    60.81304021   180.01137810
 C      2   1   3     2.640593706945    59.84840184   179.95646041
 C      2   1   3     2.630084915251    60.19142770     0.09339920
 O      6   2   1     2.610496839160   124.68710616   180.34602786
 O      3   1   2     2.583003356778   119.99709978   179.73268428
 C      4   1   2     2.845228504357   120.66070037   176.41369739
 C      9   4   1     2.925929716227   112.46426800   267.27271756
 N     10   9   4     2.760185483045   116.43359879    61.13811533
 H      1   2   3     2.062959827548   178.33519787    26.83662591
 H      2   1   3     2.066730636636   179.59644749   300.01487419
 H      5   2   1     2.062890023586   119.38947362   179.80229800
 H      7   6   2     1.836303002039   109.09995838   359.93271528
 H      8   3   1     1.845355297921   107.09609435   180.25124946
 H      9   4   1     2.083988468176   109.91130920   146.19054760
 H      9   4   1     2.083333647802   110.00068181    28.65109604
 H     10   9   4     2.082310137671   108.78369909   183.58834454
 H     10   9   4     2.082744265113   108.63583876   299.21604279
 H     11  10   9     1.933323961188   110.03824636    59.98948980
 H     11  10   9     1.934259126854   109.66805325   303.68230086
 Cu     7   6   2     5.630558922320   161.98895481   171.97101698

---------------------
BASIS SET INFORMATION
---------------------
There are 5 groups of distinct atoms

 Group   1 Type C   : 11s6p2d1f contracted to 5s3p2d1f pattern {62111/411/11/1}
 Group   2 Type O   : 11s6p2d1f contracted to 5s3p2d1f pattern {62111/411/11/1}
 Group   3 Type N   : 11s6p2d1f contracted to 5s3p2d1f pattern {62111/411/11/1}
 Group   4 Type H   : 5s1p contracted to 3s1p pattern {311/1}
 Group   5 Type Cu  : 17s11p7d1f contracted to 6s4p4d1f pattern {842111/6311/4111/1}

Atom   0C    basis set group =>   1
Atom   1C    basis set group =>   1
Atom   2C    basis set group =>   1
Atom   3C    basis set group =>   1
Atom   4C    basis set group =>   1
Atom   5C    basis set group =>   1
Atom   6O    basis set group =>   2
Atom   7O    basis set group =>   2
Atom   8C    basis set group =>   1
Atom   9C    basis set group =>   1
Atom  10N    basis set group =>   3
Atom  11H    basis set group =>   4
Atom  12H    basis set group =>   4
Atom  13H    basis set group =>   4
Atom  14H    basis set group =>   4
Atom  15H    basis set group =>   4
Atom  16H    basis set group =>   4
Atom  17H    basis set group =>   4
Atom  18H    basis set group =>   4
Atom  19H    basis set group =>   4
Atom  20H    basis set group =>   4
Atom  21H    basis set group =>   4
Atom  22Cu   basis set group =>   5
---------------------------------
AUXILIARY/J BASIS SET INFORMATION
---------------------------------
There are 5 groups of distinct atoms

 Group   1 Type C   : 12s5p4d2f1g contracted to 6s4p3d1f1g pattern {711111/2111/211/2/1}
 Group   2 Type O   : 12s5p4d2f1g contracted to 6s4p3d1f1g pattern {711111/2111/211/2/1}
 Group   3 Type N   : 12s5p4d2f1g contracted to 6s4p3d1f1g pattern {711111/2111/211/2/1}
 Group   4 Type H   : 5s2p1d contracted to 3s1p1d pattern {311/2/1}
 Group   5 Type Cu  : 19s5p5d3f3g contracted to 8s5p4d3f3g pattern {121111111/11111/2111/111/111}

Atom   0C    basis set group =>   1
Atom   1C    basis set group =>   1
Atom   2C    basis set group =>   1
Atom   3C    basis set group =>   1
Atom   4C    basis set group =>   1
Atom   5C    basis set group =>   1
Atom   6O    basis set group =>   2
Atom   7O    basis set group =>   2
Atom   8C    basis set group =>   1
Atom   9C    basis set group =>   1
Atom  10N    basis set group =>   3
Atom  11H    basis set group =>   4
Atom  12H    basis set group =>   4
Atom  13H    basis set group =>   4
Atom  14H    basis set group =>   4
Atom  15H    basis set group =>   4
Atom  16H    basis set group =>   4
Atom  17H    basis set group =>   4
Atom  18H    basis set group =>   4
Atom  19H    basis set group =>   4
Atom  20H    basis set group =>   4
Atom  21H    basis set group =>   4
Atom  22Cu   basis set group =>   5


           ************************************************************
           *        Program running with 8 parallel MPI-processes     *
           *              working on a common directory               *
           ************************************************************
------------------------------------------------------------------------------
                           ORCA GTO INTEGRAL CALCULATION
                           -- RI-GTO INTEGRALS CHOSEN --
------------------------------------------------------------------------------
------------------------------------------------------------------------------
                   ___                                                        
                  /   \      - P O W E R E D   B Y -                         
                 /     \                                                     
                 |  |  |   _    _      __       _____    __    __             
                 |  |  |  | |  | |    /  \     |  _  \  |  |  /  |          
                  \  \/   | |  | |   /    \    | | | |  |  | /  /          
                 / \  \   | |__| |  /  /\  \   | |_| |  |  |/  /          
                |  |  |   |  __  | /  /__\  \  |    /   |      \           
                |  |  |   | |  | | |   __   |  |    \   |  |\   \          
                \     /   | |  | | |  |  |  |  | |\  \  |  | \   \       
                 \___/    |_|  |_| |__|  |__|  |_| \__\ |__|  \__/        
                                                                              
                      - O R C A' S   B I G   F R I E N D -                    
                                      &                                       
                       - I N T E G R A L  F E E D E R -                       
                                                                              
 v1 FN, 2020, v2 2021                                                         
------------------------------------------------------------------------------


Reading SHARK input file 1_neutral.SHARKINP.tmp ... ok
----------------------
SHARK INTEGRAL PACKAGE
----------------------

Number of atoms                             ...     23
Number of basis functions                   ...    452
Number of shells                            ...    180
Maximum angular momentum                    ...      3
Integral batch strategy                     ... SHARK/LIBINT Hybrid
RI-J (if used) integral strategy            ... SPLIT-RIJ (Revised 2003 algorithm where possible)
Printlevel                                  ...      1
Contraction scheme used                     ... SEGMENTED contraction
Coulomb Range Separation                    ... NOT USED
Exchange Range Separation                   ... NOT USED
Finite Nucleus Model                        ... NOT USED
Auxiliary Coulomb fitting basis             ... AVAILABLE
   # of basis functions in Aux-J            ...    751
   # of shells in Aux-J                     ...    243
   Maximum angular momentum in Aux-J        ...      4
Auxiliary J/K fitting basis                 ... NOT available
Auxiliary Correlation fitting basis         ... NOT available
Auxiliary 'external' fitting basis          ... NOT available
Integral threshold                          ...     2.500000e-11
Primitive cut-off                           ...     2.500000e-12
Primitive pair pre-selection threshold      ...     2.500000e-12

Calculating pre-screening integrals         ... done (  0.1 sec) Dimension = 180
Organizing shell pair data                  ... done (  0.1 sec)
Shell pair information
Total number of shell pairs                 ...     16290
Shell pairs after pre-screening             ...     12974
Total number of primitive shell pairs       ...     52337
Primitive shell pairs kept                  ...     28581
          la=0 lb=0:   3501 shell pairs
          la=1 lb=0:   3657 shell pairs
          la=1 lb=1:    984 shell pairs
          la=2 lb=0:   1923 shell pairs
          la=2 lb=1:   1019 shell pairs
          la=2 lb=2:    277 shell pairs
          la=3 lb=0:    851 shell pairs
          la=3 lb=1:    462 shell pairs
          la=3 lb=2:    240 shell pairs
          la=3 lb=3:     60 shell pairs

Calculating one electron integrals          ... done (  0.0 sec)
Calculating RI/J V-Matrix + Cholesky decomp.... done (  0.0 sec)
Calculating Nuclear repulsion               ... done (  0.0 sec) ENN=    830.790574870514 Eh

SHARK setup successfully completed in   0.3 seconds

Maximum memory used throughout the entire GTOINT-calculation: 22.3 MB


           ************************************************************
           *        Program running with 8 parallel MPI-processes     *
           *              working on a common directory               *
           ************************************************************
-------------------------------------------------------------------------------
                                 ORCA SCF
-------------------------------------------------------------------------------

------------
SCF SETTINGS
------------
Hamiltonian:
 Density Functional     Method          .... DFT(GTOs)
 Exchange Functional    Exchange        .... PBE
   PBE kappa parameter   XKappa         ....  0.804000
   PBE mue parameter    XMuePBE         ....  0.219520
 Correlation Functional Correlation     .... PBE
   PBE beta parameter  CBetaPBE         ....  0.066725
 LDA part of GGA corr.  LDAOpt          .... PW91-LDA
 Gradients option       PostSCFGGA      .... off
   Density functional embedding theory  .... OFF
   NL short-range parameter             ....  6.400000
 RI-approximation to the Coulomb term is turned on
   Number of AuxJ basis functions       .... 751


General Settings:
 Integral files         IntName         .... 1_neutral
 Hartree-Fock type      HFTyp           .... UHF
 Total Charge           Charge          ....    0
 Multiplicity           Mult            ....    2
 Number of Electrons    NEL             ....  111
 Basis Dimension        Dim             ....  452
 Nuclear Repulsion      ENuc            ....    830.7905748705 Eh

Convergence Acceleration:
 DIIS                   CNVDIIS         .... on
   Start iteration      DIISMaxIt       ....    12
   Startup error        DIISStart       ....  0.200000
   # of expansion vecs  DIISMaxEq       ....     5
   Bias factor          DIISBfac        ....   1.050
   Max. coefficient     DIISMaxC        ....  10.000
 Trust-Rad. Augm. Hess. CNVTRAH         .... auto
   Auto Start mean grad. ratio tolernc. ....  1.125000
   Auto Start start iteration           ....    20
   Auto Start num. interpolation iter.  ....    10
   Max. Number of Micro iterations      ....    16
   Max. Number of Macro iterations      .... Maxiter - #DIIS iter
   Number of Davidson start vectors     ....     2
   Converg. threshold I  (grad. norm)   ....   1.000e-05
   Converg. threshold II (energy diff.) ....   1.000e-08
   Grad. Scal. Fac. for Micro threshold ....   0.100
   Minimum threshold for Micro iter.    ....   0.010
   NR start threshold (gradient norm)   ....   0.001
   Initial trust radius                 ....   0.400
   Minimum AH scaling param. (alpha)    ....   1.000
   Maximum AH scaling param. (alpha)    .... 1000.000
   Orbital update algorithm             .... Taylor
   White noise on init. David. guess    .... on
   Maximum white noise                  ....   0.010
   Quad. conv. algorithm                .... NR
 SOSCF                  CNVSOSCF        .... off
 Level Shifting         CNVShift        .... on
   Level shift para.    LevelShift      ....    0.2500
   Turn off err/grad.   ShiftErr        ....    0.0010
 Zerner damping         CNVZerner       .... off
 Static damping         CNVDamp         .... on
   Fraction old density DampFac         ....    0.7000
   Max. Damping (<1)    DampMax         ....    0.9800
   Min. Damping (>=0)   DampMin         ....    0.0000
   Turn off err/grad.   DampErr         ....    0.1000
 Fernandez-Rico         CNVRico         .... off

SCF Procedure:
 Maximum # iterations   MaxIter         ....   125
 SCF integral mode      SCFMode         .... Direct
   Integral package                     .... SHARK and LIBINT hybrid scheme
 Reset frequency        DirectResetFreq ....    20
 Integral Threshold     Thresh          ....  2.500e-11 Eh
 Primitive CutOff       TCut            ....  2.500e-12 Eh

Convergence Tolerance:
 Convergence Check Mode ConvCheckMode   .... Total+1el-Energy
 Convergence forced     ConvForced      .... 0
 Energy Change          TolE            ....  1.000e-08 Eh
 1-El. energy change                    ....  1.000e-05 Eh
 DIIS Error             TolErr          ....  5.000e-07


Diagonalization of the overlap matrix:
Smallest eigenvalue                        ... 8.833e-06
Time for diagonalization                   ...    0.027 sec
Threshold for overlap eigenvalues          ... 1.000e-08
Number of eigenvalues below threshold      ... 0
Time for construction of square roots      ...    0.023 sec
Total time needed                          ...    0.051 sec

Time for model grid setup =    0.122 sec

------------------------------
INITIAL GUESS: MODEL POTENTIAL
------------------------------
Loading Hartree-Fock densities                     ... done
Calculating cut-offs                               ... done
Initializing the effective Hamiltonian             ... done
Setting up the integral package (SHARK)            ... done
Starting the Coulomb interaction                   ... done (   0.1 sec)
Reading the grid                                   ... done
Mapping shells                                     ... done
Starting the XC term evaluation                    ... done (   0.1 sec)
  promolecular density results
     # of electrons  =    111.004251860
     EX              =   -132.464686483
     EC              =     -4.075715275
     EX+EC           =   -136.540401758
Transforming the Hamiltonian                       ... done (   0.0 sec)
Diagonalizing the Hamiltonian                      ... done (   0.0 sec)
Back transforming the eigenvectors                 ... done (   0.0 sec)
Now organizing SCF variables                       ... done
                      ------------------
                      INITIAL GUESS DONE (   0.5 sec)
                      ------------------
-------------------
DFT GRID GENERATION
-------------------

General Integration Accuracy     IntAcc      ... 4.388
Radial Grid Type                 RadialGrid  ... OptM3 with GC (2021)
Angular Grid (max. ang.)         AngularGrid ... 4 (Lebedev-302)
Angular grid pruning method      GridPruning ... 4 (adaptive)
Weight generation scheme         WeightScheme... Becke
Basis function cutoff            BFCut       ... 1.0000e-11
Integration weight cutoff        WCut        ... 1.0000e-14
Angular grids for H and He will be reduced by one unit
Partially contracted basis set               ... off
Rotationally invariant grid construction     ... off

Total number of grid points                  ...   112491
Total number of batches                      ...     1770
Average number of points per batch           ...       63
Average number of grid points per atom       ...     4891
Time for grid setup =    0.598 sec

--------------
SCF ITERATIONS
--------------
ITER       Energy         Delta-E        Max-DP      RMS-DP      [F,P]     Damp
               ***  Starting incremental Fock matrix formation  ***
  0  -2156.1229398347   0.000000000000 0.18025786  0.00120140  0.2556357 0.7000
  1  -2156.3008055866  -0.177865751952 0.16517769  0.00108286  0.0980677 0.7000
                               ***Turning on DIIS***
  2  -2156.3607335468  -0.059927960201 0.18677192  0.00150869  0.0448012 0.0000
  3  -2156.4612074304  -0.100473883595 0.15000986  0.00090056  0.0910667 0.0000
  4  -2156.4894181569  -0.028210726508 0.04421041  0.00031828  0.0175119 0.0000
  5  -2156.4912261913  -0.001808034394 0.02126212  0.00015024  0.0053455 0.0000
  6  -2156.4913633333  -0.000137141998 0.00809601  0.00005428  0.0016630 0.0000
  7  -2156.4913733465  -0.000010013162 0.00277497  0.00002333  0.0012367 0.0000
  8  -2156.4913775561  -0.000004209625 0.00163257  0.00001632  0.0005449 0.0000
  9  -2156.4913778799  -0.000000323761 0.00040627  0.00000274  0.0009156 0.0000
 10  -2156.4913788443  -0.000000964402 0.00009947  0.00000099  0.0001857 0.0000
 11  -2156.4913789090  -0.000000064771 0.00009645  0.00000097  0.0000507 0.0000
 12  -2156.4913789298  -0.000000020750 0.00004503  0.00000037  0.0000206 0.0000
 13  -2156.4913789352  -0.000000005440 0.00009198  0.00000080  0.0000129 0.0000
 14  -2156.4913789317   0.000000003565 0.00005010  0.00000036  0.0000147 0.0000
 15  -2156.4913789139   0.000000017710 0.00004155  0.00000040  0.0000062 0.0000
 16  -2156.4913789215  -0.000000007520 0.00005728  0.00000036  0.0000018 0.0000
                 **** Energy Check signals convergence ****

               *****************************************************
               *                     SUCCESS                       *
               *           SCF CONVERGED AFTER  17 CYCLES          *
               *****************************************************


----------------
TOTAL SCF ENERGY
----------------

Total Energy       :        -2156.49137892 Eh          -58681.11371 eV

Components:
Nuclear Repulsion  :          830.79057487 Eh           22606.96086 eV
Electronic Energy  :        -2987.28195379 Eh          -81288.07457 eV
One Electron Energy:        -4640.11766002 Eh         -126264.02067 eV
Two Electron Energy:         1652.83570623 Eh           44975.94610 eV

Virial components:
Potential Energy   :        -4308.26682323 Eh         -117233.90032 eV
Kinetic Energy     :         2151.77544431 Eh           58552.78661 eV
Virial Ratio       :            2.00219165


DFT components:
N(Alpha)           :       56.000125717492 electrons
N(Beta)            :       55.000144721134 electrons
N(Total)           :      111.000270438626 electrons
E(X)               :     -133.869934882394 Eh       
E(C)               :       -4.086036806167 Eh       
E(XC)              :     -137.955971688561 Eh       
DFET-embed. en.    :        0.000000000000 Eh       

---------------
SCF CONVERGENCE
---------------

  Last Energy change         ...    5.7571e-10  Tolerance :   1.0000e-08
  Last MAX-Density change    ...    9.2358e-06  Tolerance :   1.0000e-07
  Last RMS-Density change    ...    1.1973e-07  Tolerance :   5.0000e-09
  Last DIIS Error            ...    4.3327e-07  Tolerance :   5.0000e-07

             **** THE GBW FILE WAS UPDATED (1_neutral.gbw) ****
             **** DENSITY 1_neutral.scfp WAS UPDATED ****
             **** ENERGY FILE WAS UPDATED (1_neutral.en.tmp) ****
----------------------
UHF SPIN CONTAMINATION
----------------------

Warning: in a DFT calculation there is little theoretical justification to 
         calculate <S**2> as in Hartree-Fock theory. We will do it anyways
         but you should keep in mind that the values have only limited relevance

Expectation value of <S**2>     :     0.752442
Ideal value S*(S+1) for S=0.5   :     0.750000
Deviation                       :     0.002442

             **** THE GBW FILE WAS UPDATED (1_neutral.gbw) ****
             **** DENSITY 1_neutral.scfp WAS UPDATED ****
----------------
ORBITAL ENERGIES
----------------
                 SPIN UP ORBITALS
  NO   OCC          E(Eh)            E(eV) 
   0   1.0000    -321.488057     -8748.1348 
   1   1.0000     -38.248591     -1040.7971 
   2   1.0000     -33.540148      -912.6738 
   3   1.0000     -33.540132      -912.6734 
   4   1.0000     -33.540087      -912.6722 
   5   1.0000     -18.804854      -511.7061 
   6   1.0000     -18.783118      -511.1146 
   7   1.0000     -13.959686      -379.8624 
   8   1.0000      -9.949046      -270.7273 
   9   1.0000      -9.945688      -270.6359 
  10   1.0000      -9.903102      -269.4771 
  11   1.0000      -9.895233      -269.2630 
  12   1.0000      -9.893250      -269.2090 
  13   1.0000      -9.885083      -268.9868 
  14   1.0000      -9.884789      -268.9788 
  15   1.0000      -9.883376      -268.9403 
  16   1.0000      -4.081263      -111.0568 
  17   1.0000      -2.617830       -71.2348 
  18   1.0000      -2.617119       -71.2154 
  19   1.0000      -2.616855       -71.2083 
  20   1.0000      -0.998079       -27.1591 
  21   1.0000      -0.968264       -26.3478 
  22   1.0000      -0.803113       -21.8538 
  23   1.0000      -0.778361       -21.1803 
  24   1.0000      -0.701888       -19.0993 
  25   1.0000      -0.677590       -18.4382 
  26   1.0000      -0.640960       -17.4414 
  27   1.0000      -0.584260       -15.8985 
  28   1.0000      -0.560512       -15.2523 
  29   1.0000      -0.538534       -14.6542 
  30   1.0000      -0.505959       -13.7678 
  31   1.0000      -0.479148       -13.0383 
  32   1.0000      -0.443639       -12.0720 
  33   1.0000      -0.436573       -11.8798 
  34   1.0000      -0.411681       -11.2024 
  35   1.0000      -0.396329       -10.7847 
  36   1.0000      -0.392510       -10.6807 
  37   1.0000      -0.381771       -10.3885 
  38   1.0000      -0.373718       -10.1694 
  39   1.0000      -0.372079       -10.1248 
  40   1.0000      -0.345684        -9.4065 
  41   1.0000      -0.336941        -9.1686 
  42   1.0000      -0.330351        -8.9893 
  43   1.0000      -0.310130        -8.4391 
  44   1.0000      -0.307185        -8.3589 
  45   1.0000      -0.292502        -7.9594 
  46   1.0000      -0.289835        -7.8868 
  47   1.0000      -0.219225        -5.9654 
  48   1.0000      -0.201268        -5.4768 
  49   1.0000      -0.197478        -5.3736 
  50   1.0000      -0.197351        -5.3702 
  51   1.0000      -0.197240        -5.3672 
  52   1.0000      -0.196690        -5.3522 
  53   1.0000      -0.196237        -5.3399 
  54   1.0000      -0.186565        -5.0767 
  55   1.0000      -0.179120        -4.8741 
  56   0.0000      -0.040698        -1.1075 
  57   0.0000      -0.028151        -0.7660 
  58   0.0000      -0.026298        -0.7156 
  59   0.0000      -0.007650        -0.2082 
  60   0.0000       0.015301         0.4164 
  61   0.0000       0.024322         0.6618 
  62   0.0000       0.034177         0.9300 
  63   0.0000       0.035522         0.9666 
  64   0.0000       0.044792         1.2189 
  65   0.0000       0.052244         1.4216 
  66   0.0000       0.063139         1.7181 
  67   0.0000       0.078470         2.1353 
  68   0.0000       0.084567         2.3012 
  69   0.0000       0.092618         2.5203 
  70   0.0000       0.095192         2.5903 
  71   0.0000       0.103879         2.8267 
  72   0.0000       0.110406         3.0043 
  73   0.0000       0.112457         3.0601 
  74   0.0000       0.123803         3.3689 
  75   0.0000       0.135301         3.6817 
  76   0.0000       0.141387         3.8473 
  77   0.0000       0.146470         3.9856 
  78   0.0000       0.149442         4.0665 
  79   0.0000       0.158464         4.3120 
  80   0.0000       0.163884         4.4595 
  81   0.0000       0.168619         4.5884 
  82   0.0000       0.185257         5.0411 
  83   0.0000       0.191278         5.2049 
  84   0.0000       0.193494         5.2652 
  85   0.0000       0.206820         5.6279 
  86   0.0000       0.213186         5.8011 
  87   0.0000       0.217332         5.9139 
  88   0.0000       0.227995         6.2041 
  89   0.0000       0.232250         6.3198 
  90   0.0000       0.241240         6.5645 
  91   0.0000       0.245610         6.6834 
  92   0.0000       0.257597         7.0096 
  93   0.0000       0.270039         7.3481 
  94   0.0000       0.274315         7.4645 
  95   0.0000       0.276992         7.5373 
  96   0.0000       0.290064         7.8930 
  97   0.0000       0.293805         7.9948 
  98   0.0000       0.303418         8.2564 
  99   0.0000       0.307927         8.3791 
 100   0.0000       0.314718         8.5639 
 101   0.0000       0.323689         8.8080 
 102   0.0000       0.325316         8.8523 
 103   0.0000       0.333374         9.0716 
 104   0.0000       0.335204         9.1214 
 105   0.0000       0.348293         9.4775 
 106   0.0000       0.364721         9.9246 
 107   0.0000       0.369672        10.0593 
 108   0.0000       0.377861        10.2821 
 109   0.0000       0.386752        10.5240 
 110   0.0000       0.395904        10.7731 
 111   0.0000       0.403351        10.9757 
 112   0.0000       0.405224        11.0267 
 113   0.0000       0.412733        11.2310 
 114   0.0000       0.418324        11.3832 
 115   0.0000       0.427807        11.6412 
 116   0.0000       0.434661        11.8277 
 117   0.0000       0.447752        12.1840 
 118   0.0000       0.455059        12.3828 
 119   0.0000       0.461818        12.5667 
 120   0.0000       0.471722        12.8362 
 121   0.0000       0.484883        13.1943 
 122   0.0000       0.492131        13.3916 
 123   0.0000       0.506572        13.7845 
 124   0.0000       0.514822        14.0090 
 125   0.0000       0.525242        14.2926 
 126   0.0000       0.531694        14.4681 
 127   0.0000       0.550040        14.9673 
 128   0.0000       0.556880        15.1535 
 129   0.0000       0.569311        15.4917 
 130   0.0000       0.570609        15.5271 
 131   0.0000       0.580354        15.7922 
 132   0.0000       0.593928        16.1616 
 133   0.0000       0.600197        16.3322 
 134   0.0000       0.610769        16.6199 
 135   0.0000       0.623568        16.9681 
 136   0.0000       0.634652        17.2698 
 137   0.0000       0.653708        17.7883 
 138   0.0000       0.661661        18.0047 
 139   0.0000       0.680398        18.5146 
 140   0.0000       0.690002        18.7759 
 141   0.0000       0.705943        19.2097 
 142   0.0000       0.723367        19.6838 
 143   0.0000       0.733365        19.9559 
 144   0.0000       0.739710        20.1285 
 145   0.0000       0.763809        20.7843 
 146   0.0000       0.771521        20.9942 
 147   0.0000       0.773880        21.0584 
 148   0.0000       0.778452        21.1828 
 149   0.0000       0.809384        22.0245 
 150   0.0000       0.815436        22.1891 
 151   0.0000       0.816532        22.2190 
 152   0.0000       0.829580        22.5740 
 153   0.0000       0.831624        22.6296 
 154   0.0000       0.837028        22.7767 
 155   0.0000       0.839659        22.8483 
 156   0.0000       0.851117        23.1601 
 157   0.0000       0.865600        23.5542 
 158   0.0000       0.870372        23.6840 
 159   0.0000       0.882423        24.0119 
 160   0.0000       0.894483        24.3401 
 161   0.0000       0.926291        25.2057 
 162   0.0000       0.950889        25.8750 
 163   0.0000       0.959172        26.1004 
 164   0.0000       0.977091        26.5880 
 165   0.0000       0.983698        26.7678 
 166   0.0000       1.008586        27.4450 
 167   0.0000       1.017806        27.6959 
 168   0.0000       1.034846        28.1596 
 169   0.0000       1.041935        28.3525 
 170   0.0000       1.065232        28.9864 
 171   0.0000       1.075896        29.2766 
 172   0.0000       1.089266        29.6404 
 173   0.0000       1.114864        30.3370 
 174   0.0000       1.128150        30.6985 
 175   0.0000       1.142121        31.0787 
 176   0.0000       1.150591        31.3092 
 177   0.0000       1.173470        31.9317 
 178   0.0000       1.180095        32.1120 
 179   0.0000       1.203375        32.7455 
 180   0.0000       1.212424        32.9917 
 181   0.0000       1.241406        33.7804 
 182   0.0000       1.256564        34.1929 
 183   0.0000       1.257263        34.2119 
 184   0.0000       1.267503        34.4905 
 185   0.0000       1.283196        34.9175 
 186   0.0000       1.292151        35.1612 
 187   0.0000       1.311279        35.6817 
 188   0.0000       1.330008        36.1914 
 189   0.0000       1.343077        36.5470 
 190   0.0000       1.362237        37.0684 
 191   0.0000       1.374291        37.3964 
 192   0.0000       1.382233        37.6125 
 193   0.0000       1.401887        38.1473 
 194   0.0000       1.411407        38.4063 
 195   0.0000       1.449312        39.4378 
 196   0.0000       1.461913        39.7807 
 197   0.0000       1.470298        40.0088 
 198   0.0000       1.497333        40.7445 
 199   0.0000       1.502111        40.8745 
 200   0.0000       1.520626        41.3783 
 201   0.0000       1.526895        41.5489 
 202   0.0000       1.553366        42.2692 
 203   0.0000       1.567982        42.6670 
 204   0.0000       1.580326        43.0029 
 205   0.0000       1.596867        43.4530 
 206   0.0000       1.601228        43.5716 
 207   0.0000       1.625580        44.2343 
 208   0.0000       1.630965        44.3808 
 209   0.0000       1.636499        44.5314 
 210   0.0000       1.652574        44.9688 
 211   0.0000       1.661606        45.2146 
 212   0.0000       1.674963        45.5781 
 213   0.0000       1.685148        45.8552 
 214   0.0000       1.695480        46.1364 
 215   0.0000       1.732190        47.1353 
 216   0.0000       1.734814        47.2067 
 217   0.0000       1.756614        47.7999 
 218   0.0000       1.778077        48.3839 
 219   0.0000       1.791680        48.7541 
 220   0.0000       1.810626        49.2696 
 221   0.0000       1.824576        49.6492 
 222   0.0000       1.831881        49.8480 
 223   0.0000       1.852414        50.4068 
 224   0.0000       1.865713        50.7686 
 225   0.0000       1.877641        51.0932 
 226   0.0000       1.892603        51.5004 
 227   0.0000       1.908905        51.9439 
 228   0.0000       1.920235        52.2523 
 229   0.0000       1.935129        52.6575 
 230   0.0000       1.955913        53.2231 
 231   0.0000       1.967990        53.5517 
 232   0.0000       1.978472        53.8369 
 233   0.0000       1.983404        53.9712 
 234   0.0000       1.995128        54.2902 
 235   0.0000       2.010712        54.7143 
 236   0.0000       2.030410        55.2503 
 237   0.0000       2.037414        55.4409 
 238   0.0000       2.039647        55.5016 
 239   0.0000       2.059489        56.0415 
 240   0.0000       2.064535        56.1789 
 241   0.0000       2.081181        56.6318 
 242   0.0000       2.088990        56.8443 
 243   0.0000       2.107774        57.3555 
 244   0.0000       2.112663        57.4885 
 245   0.0000       2.142122        58.2901 
 246   0.0000       2.167293        58.9751 
 247   0.0000       2.171442        59.0879 
 248   0.0000       2.191773        59.6412 
 249   0.0000       2.202444        59.9316 
 250   0.0000       2.231808        60.7306 
 251   0.0000       2.241433        60.9925 
 252   0.0000       2.266196        61.6663 
 253   0.0000       2.283300        62.1318 
 254   0.0000       2.309217        62.8370 
 255   0.0000       2.332301        63.4651 
 256   0.0000       2.349365        63.9295 
 257   0.0000       2.359549        64.2066 
 258   0.0000       2.369821        64.4861 
 259   0.0000       2.391957        65.0885 
 260   0.0000       2.398506        65.2667 
 261   0.0000       2.408338        65.5342 
 262   0.0000       2.424576        65.9761 
 263   0.0000       2.436219        66.2929 
 264   0.0000       2.468582        67.1735 
 265   0.0000       2.479483        67.4702 
 266   0.0000       2.503848        68.1332 
 267   0.0000       2.513052        68.3836 
 268   0.0000       2.537341        69.0445 
 269   0.0000       2.551537        69.4309 
 270   0.0000       2.564398        69.7808 
 271   0.0000       2.571359        69.9702 
 272   0.0000       2.579443        70.1902 
 273   0.0000       2.593245        70.5658 
 274   0.0000       2.610271        71.0291 
 275   0.0000       2.619802        71.2884 
 276   0.0000       2.632490        71.6337 
 277   0.0000       2.641622        71.8822 
 278   0.0000       2.660338        72.3915 
 279   0.0000       2.669160        72.6315 
 280   0.0000       2.683078        73.0103 
 281   0.0000       2.700569        73.4862 
 282   0.0000       2.720113        74.0180 
 283   0.0000       2.734824        74.4183 
 284   0.0000       2.750040        74.8324 
 285   0.0000       2.761038        75.1317 
 286   0.0000       2.769334        75.3574 
 287   0.0000       2.778365        75.6032 
 288   0.0000       2.786087        75.8133 
 289   0.0000       2.807772        76.4034 
 290   0.0000       2.818737        76.7017 
 291   0.0000       2.828514        76.9678 
 292   0.0000       2.838465        77.2386 
 293   0.0000       2.859909        77.8221 
 294   0.0000       2.873208        78.1840 
 295   0.0000       2.898884        78.8826 
 296   0.0000       2.904704        79.0410 
 297   0.0000       2.922945        79.5374 
 298   0.0000       2.938368        79.9571 
 299   0.0000       2.944224        80.1164 
 300   0.0000       2.962953        80.6260 
 301   0.0000       2.977651        81.0260 
 302   0.0000       2.985017        81.2265 
 303   0.0000       2.993875        81.4675 
 304   0.0000       3.015548        82.0572 
 305   0.0000       3.025369        82.3245 
 306   0.0000       3.048055        82.9418 
 307   0.0000       3.075023        83.6756 
 308   0.0000       3.087336        84.0107 
 309   0.0000       3.098125        84.3043 
 310   0.0000       3.103355        84.4466 
 311   0.0000       3.125775        85.0567 
 312   0.0000       3.131498        85.2124 
 313   0.0000       3.143258        85.5324 
 314   0.0000       3.149171        85.6933 
 315   0.0000       3.161228        86.0214 
 316   0.0000       3.172548        86.3294 
 317   0.0000       3.185434        86.6801 
 318   0.0000       3.198484        87.0352 
 319   0.0000       3.206992        87.2667 
 320   0.0000       3.237086        88.0856 
 321   0.0000       3.242436        88.2312 
 322   0.0000       3.262348        88.7730 
 323   0.0000       3.265385        88.8556 
 324   0.0000       3.291894        89.5770 
 325   0.0000       3.298501        89.7568 
 326   0.0000       3.318216        90.2933 
 327   0.0000       3.331963        90.6673 
 328   0.0000       3.332887        90.6925 
 329   0.0000       3.358712        91.3952 
 330   0.0000       3.366011        91.5938 
 331   0.0000       3.375664        91.8565 
 332   0.0000       3.409053        92.7650 
 333   0.0000       3.411681        92.8365 
 334   0.0000       3.421242        93.0967 
 335   0.0000       3.431444        93.3743 
 336   0.0000       3.440932        93.6325 
 337   0.0000       3.447872        93.8214 
 338   0.0000       3.493143        95.0533 
 339   0.0000       3.515153        95.6522 
 340   0.0000       3.543055        96.4114 
 341   0.0000       3.546601        96.5079 
 342   0.0000       3.549272        96.5806 
 343   0.0000       3.563188        96.9593 
 344   0.0000       3.570921        97.1697 
 345   0.0000       3.593488        97.7838 
 346   0.0000       3.600260        97.9681 
 347   0.0000       3.620339        98.5144 
 348   0.0000       3.631413        98.8158 
 349   0.0000       3.653695        99.4221 
 350   0.0000       3.669999        99.8657 
 351   0.0000       3.694875       100.5427 
 352   0.0000       3.743128       101.8557 
 353   0.0000       3.747701       101.9801 
 354   0.0000       3.772142       102.6452 
 355   0.0000       3.792957       103.2116 
 356   0.0000       3.804860       103.5355 
 357   0.0000       3.834446       104.3406 
 358   0.0000       3.842836       104.5689 
 359   0.0000       3.859613       105.0254 
 360   0.0000       3.888894       105.8222 
 361   0.0000       3.904623       106.2502 
 362   0.0000       3.918477       106.6272 
 363   0.0000       3.960328       107.7660 
 364   0.0000       3.999735       108.8383 
 365   0.0000       4.006934       109.0342 
 366   0.0000       4.054689       110.3337 
 367   0.0000       4.066338       110.6507 
 368   0.0000       4.075736       110.9064 
 369   0.0000       4.099723       111.5591 
 370   0.0000       4.110294       111.8468 
 371   0.0000       4.133282       112.4723 
 372   0.0000       4.144158       112.7683 
 373   0.0000       4.189303       113.9967 
 374   0.0000       4.209855       114.5560 
 375   0.0000       4.226724       115.0150 
 376   0.0000       4.246401       115.5505 
 377   0.0000       4.263010       116.0024 
 378   0.0000       4.290260       116.7439 
 379   0.0000       4.329855       117.8213 
 380   0.0000       4.346399       118.2715 
 381   0.0000       4.373916       119.0203 
 382   0.0000       4.397128       119.6519 
 383   0.0000       4.466648       121.5437 
 384   0.0000       4.480747       121.9273 
 385   0.0000       4.535811       123.4257 
 386   0.0000       4.568773       124.3226 
 387   0.0000       4.608053       125.3915 
 388   0.0000       4.643796       126.3641 
 389   0.0000       4.678190       127.3000 
 390   0.0000       4.727366       128.6382 
 391   0.0000       4.760208       129.5318 
 392   0.0000       4.776335       129.9707 
 393   0.0000       4.788309       130.2965 
 394   0.0000       4.793219       130.4301 
 395   0.0000       4.847949       131.9194 
 396   0.0000       4.887055       132.9835 
 397   0.0000       4.909400       133.5916 
 398   0.0000       4.977523       135.4453 
 399   0.0000       4.981398       135.5507 
 400   0.0000       5.000405       136.0679 
 401   0.0000       5.027270       136.7990 
 402   0.0000       5.086109       138.4001 
 403   0.0000       5.120726       139.3421 
 404   0.0000       5.156743       140.3221 
 405   0.0000       5.166693       140.5929 
 406   0.0000       5.189435       141.2117 
 407   0.0000       5.249552       142.8476 
 408   0.0000       5.296671       144.1297 
 409   0.0000       5.323510       144.8601 
 410   0.0000       5.374975       146.2605 
 411   0.0000       5.377351       146.3252 
 412   0.0000       5.402277       147.0034 
 413   0.0000       5.484080       149.2294 
 414   0.0000       5.503871       149.7679 
 415   0.0000       5.536429       150.6539 
 416   0.0000       5.662956       154.0969 
 417   0.0000       5.662994       154.0979 
 418   0.0000       5.663004       154.0982 
 419   0.0000       5.663058       154.0997 
 420   0.0000       5.663127       154.1015 
 421   0.0000       5.663338       154.1072 
 422   0.0000       5.665728       154.1723 
 423   0.0000       5.681281       154.5955 
 424   0.0000       5.733174       156.0076 
 425   0.0000       5.741707       156.2398 
 426   0.0000       5.897039       160.4666 
 427   0.0000       6.043099       164.4411 
 428   0.0000       6.137448       167.0085 
 429   0.0000       6.246069       169.9642 
 430   0.0000       6.257350       170.2712 
 431   0.0000       6.292732       171.2339 
 432   0.0000       6.401518       174.1942 
 433   0.0000       6.514573       177.2705 
 434   0.0000       6.615308       180.0117 
 435   0.0000       6.641685       180.7294 
 436   0.0000       6.712759       182.6635 
 437   0.0000       6.856244       186.5679 
 438   0.0000       6.914592       188.1556 
 439   0.0000       7.088748       192.8946 
 440   0.0000       7.223696       196.5668 
 441   0.0000      21.891054       595.6858 
 442   0.0000      22.155692       602.8870 
 443   0.0000      22.258613       605.6876 
 444   0.0000      22.432490       610.4191 
 445   0.0000      22.474158       611.5529 
 446   0.0000      22.575038       614.2980 
 447   0.0000      22.696350       617.5991 
 448   0.0000      23.107910       628.7982 
 449   0.0000      31.634101       860.8076 
 450   0.0000      43.455768      1182.4916 
 451   0.0000      43.667696      1188.2584 

                 SPIN DOWN ORBITALS
  NO   OCC          E(Eh)            E(eV) 
   0   1.0000    -321.487148     -8748.1100 
   1   1.0000     -38.249924     -1040.8334 
   2   1.0000     -33.541030      -912.6978 
   3   1.0000     -33.540984      -912.6966 
   4   1.0000     -33.540798      -912.6915 
   5   1.0000     -18.804409      -511.6940 
   6   1.0000     -18.783080      -511.1136 
   7   1.0000     -13.959685      -379.8624 
   8   1.0000      -9.948931      -270.7242 
   9   1.0000      -9.945693      -270.6361 
  10   1.0000      -9.903102      -269.4771 
  11   1.0000      -9.895224      -269.2627 
  12   1.0000      -9.893254      -269.2091 
  13   1.0000      -9.885070      -268.9864 
  14   1.0000      -9.884788      -268.9788 
  15   1.0000      -9.883376      -268.9403 
  16   1.0000      -4.082779      -111.0981 
  17   1.0000      -2.618434       -71.2512 
  18   1.0000      -2.618129       -71.2429 
  19   1.0000      -2.618087       -71.2418 
  20   1.0000      -0.997682       -27.1483 
  21   1.0000      -0.968062       -26.3423 
  22   1.0000      -0.803111       -21.8538 
  23   1.0000      -0.778300       -21.1786 
  24   1.0000      -0.701798       -19.0969 
  25   1.0000      -0.677557       -18.4373 
  26   1.0000      -0.640821       -17.4376 
  27   1.0000      -0.584084       -15.8937 
  28   1.0000      -0.560443       -15.2504 
  29   1.0000      -0.538490       -14.6531 
  30   1.0000      -0.505612       -13.7584 
  31   1.0000      -0.478945       -13.0328 
  32   1.0000      -0.443588       -12.0706 
  33   1.0000      -0.436450       -11.8764 
  34   1.0000      -0.411586       -11.1998 
  35   1.0000      -0.396236       -10.7821 
  36   1.0000      -0.392362       -10.6767 
  37   1.0000      -0.381745       -10.3878 
  38   1.0000      -0.373192       -10.1551 
  39   1.0000      -0.371893       -10.1197 
  40   1.0000      -0.345630        -9.4051 
  41   1.0000      -0.336570        -9.1585 
  42   1.0000      -0.330135        -8.9834 
  43   1.0000      -0.310046        -8.4368 
  44   1.0000      -0.307144        -8.3578 
  45   1.0000      -0.292478        -7.9587 
  46   1.0000      -0.289769        -7.8850 
  47   1.0000      -0.219170        -5.9639 
  48   1.0000      -0.201102        -5.4723 
  49   1.0000      -0.192085        -5.2269 
  50   1.0000      -0.191925        -5.2225 
  51   1.0000      -0.191878        -5.2213 
  52   1.0000      -0.191566        -5.2128 
  53   1.0000      -0.190805        -5.1921 
  54   1.0000      -0.186286        -5.0691 
  55   0.0000      -0.145706        -3.9649 
  56   0.0000      -0.040660        -1.1064 
  57   0.0000      -0.028027        -0.7626 
  58   0.0000      -0.016030        -0.4362 
  59   0.0000       0.009162         0.2493 
  60   0.0000       0.015582         0.4240 
  61   0.0000       0.031158         0.8479 
  62   0.0000       0.045854         1.2478 
  63   0.0000       0.048783         1.3275 
  64   0.0000       0.059368         1.6155 
  65   0.0000       0.069097         1.8802 
  66   0.0000       0.072163         1.9637 
  67   0.0000       0.082004         2.2314 
  68   0.0000       0.091988         2.5031 
  69   0.0000       0.094048         2.5592 
[...]
    133. D(H  17,Cu 23,O   6,C   2)    173.5312         0.001500   
    -----------------------------------------------------------------

Number of atoms                         .... 24
Number of degrees of freedom            .... 133

         *************************************************************
         *                GEOMETRY OPTIMIZATION CYCLE   1            *
         *************************************************************
---------------------------------
CARTESIAN COORDINATES (ANGSTROEM)
---------------------------------
  C     -1.176990   -1.606350    0.211530
  C      0.054300    0.765370   -0.592400
  C     -1.891640   -0.411530    0.248640
  C      0.154230   -1.623640   -0.216490
  C      0.780460   -0.443920   -0.629840
  C     -1.275400    0.791520   -0.161930
  O     -3.190620   -0.277810    0.644060
  O     -1.954220    1.960390   -0.158470
  C      2.243990   -0.423940   -0.999990
  C      3.111720   -0.244670    0.251460
  N      2.625100    0.973500    1.012390
  H      1.574490    0.976510    0.937260
  H      2.908180    0.967150    2.000410
  H      2.963070    1.847170    0.586170
  H     -1.664300   -2.536130    0.514050
  H      0.472510    1.692470   -0.995930
  H      0.693380   -2.571920   -0.247010
  H     -3.584010   -1.145910    0.842190
  H     -2.872250    1.782360    0.129910
  H      2.457550    0.378960   -1.723450
  H      2.551080   -1.366660   -1.474240
  H      2.994260   -1.095530    0.934060
  H      4.176470   -0.100420    0.029360
  Cu    -5.824870    2.084910    1.004940

----------------------------
CARTESIAN COORDINATES (A.U.)
----------------------------
  NO LB      ZA    FRAG     MASS         X           Y           Z
   0 C     6.0000    0    12.011   -2.224189   -3.035562    0.399734
   1 C     6.0000    0    12.011    0.102612    1.446340   -1.119474
   2 C     6.0000    0    12.011   -3.574682   -0.777679    0.469862
   3 C     6.0000    0    12.011    0.291452   -3.068235   -0.409107
   4 C     6.0000    0    12.011    1.474856   -0.838887   -1.190225
   5 C     6.0000    0    12.011   -2.410157    1.495756   -0.306003
   6 O     8.0000    0    15.999   -6.029398   -0.524985    1.217097
   7 O     8.0000    0    15.999   -3.692941    3.704600   -0.299465
   8 C     6.0000    0    12.011    4.240527   -0.801130   -1.889707
   9 C     6.0000    0    12.011    5.880299   -0.462359    0.475191
  10 N     7.0000    0    14.007    4.960720    1.839648    1.913140
  11 H     1.0000    0     1.008    2.975355    1.845336    1.771165
  12 H     1.0000    0     1.008    5.495664    1.827649    3.780227
  13 H     1.0000    0     1.008    5.599391    3.490645    1.107701
  14 H     1.0000    0     1.008   -3.145071   -4.792591    0.971414
  15 H     1.0000    0     1.008    0.892914    3.198305   -1.882035
  16 H     1.0000    0     1.008    1.310298   -4.860224   -0.466781
  17 H     1.0000    0     1.008   -6.772797   -2.165456    1.591508
  18 H     1.0000    0     1.008   -5.427766    3.368172    0.245494
  19 H     1.0000    0     1.008    4.644096    0.716131   -3.256849
  20 H     1.0000    0     1.008    4.820843   -2.582613   -2.785910
  21 H     1.0000    0     1.008    5.658331   -2.070252    1.765118
  22 H     1.0000    0     1.008    7.892385   -0.189766    0.055482
  23 Cu   29.0000    0    63.550  -11.007409    3.939909    1.899061

--------------------------------
INTERNAL COORDINATES (ANGSTROEM)
--------------------------------
 C      0   0   0     0.000000000000     0.00000000     0.00000000
 C      1   0   0     2.790597474986     0.00000000     0.00000000
 C      1   2   0     1.392729911720    60.32750606     0.00000000
 C      1   2   3     1.398444404651    60.15311721   180.44155676
 C      4   1   2     1.398127860319   120.42634560   359.59800303
 C      2   1   3     1.397887811450    60.49362529   359.75552039
 O      3   1   2     1.364399888303   125.47356514   179.39830364
 O      6   2   1     1.351689920396   119.64792203   180.95291381
 C      5   4   1     1.509745105572   121.18789882   175.52795997
 C      9   5   4     1.533368901569   110.48884268   275.04215978
 N     10   9   5     1.516493204139   108.77433713   307.19078148
 H     11  10   9     1.053297179860   106.65280909    38.02328769
 H     11  10   9     1.027792843573   112.89288909   159.03970893
 H     11  10   9     1.029167857155   111.63753230   281.24291654
 H      1   2   3     1.092465209927   179.29926062    83.90454561
 H      2   1   3     1.094189414590   174.26695548   289.08308687
 H      4   1   2     1.091260349917   119.31532002   181.01936953
 H      7   3   1     0.973452001385   110.87490418   355.97492682
 H      8   6   2     0.978589181526   108.33411774   177.37187681
 H      9   5   4     1.101658138989   111.01241047   152.79650451
 H      9   5   4     1.099062477296   111.42603513    34.00026413
 H     10   9   5     1.097133697960   110.88681723    63.43614013
 H     10   9   5     1.097191430426   113.53614013   187.04849535
 Cu    19   8   6     3.094378591543   163.88037095   174.36686505

---------------------------
INTERNAL COORDINATES (A.U.)
---------------------------
 C      0   0   0     0.000000000000     0.00000000     0.00000000
 C      1   0   0     5.273464977736     0.00000000     0.00000000
 C      1   2   0     2.631878111671    60.32750606     0.00000000
 C      1   2   3     2.642676938305    60.15311721   180.44155676
 C      4   1   2     2.642078756208   120.42634560   359.59800303
 C      2   1   3     2.641625129587    60.49362529   359.75552039
 O      3   1   2     2.578342126045   125.47356514   179.39830364
 O      6   2   1     2.554323767530   119.64792203   180.95291381
 C      5   4   1     2.853004781560   121.18789882   175.52795997
 C      9   5   4     2.897647286238   110.48884268   275.04215978
 N     10   9   5     2.865756839776   108.77433713   307.19078148
 H     11  10   9     1.990443207566   106.65280909    38.02328769
 H     11  10   9     1.942246996757   112.89288909   159.03970893
 H     11  10   9     1.944845395857   111.63753230   281.24291654
 H      1   2   3     2.064460057598   179.29926062    83.90454561
 H      2   1   3     2.067718332210   174.26695548   289.08308687
 H      4   1   2     2.062183202149   119.31532002   181.01936953
 H      7   3   1     1.839557687135   110.87490418   355.97492682
 H      8   6   2     1.849265550703   108.33411774   177.37187681
 H      9   5   4     2.081832175894   111.01241047   152.79650451
 H      9   5   4     2.076927086158   111.42603513    34.00026413
 H     10   9   5     2.073282221441   110.88681723    63.43614013
 H     10   9   5     2.073391319990   113.53614013   187.04849535
 Cu    19   8   6     5.847528092685   163.88037095   174.36686505

---------------------
BASIS SET INFORMATION
---------------------
There are 5 groups of distinct atoms

 Group   1 Type C   : 11s6p2d1f contracted to 5s3p2d1f pattern {62111/411/11/1}
 Group   2 Type O   : 11s6p2d1f contracted to 5s3p2d1f pattern {62111/411/11/1}
 Group   3 Type N   : 11s6p2d1f contracted to 5s3p2d1f pattern {62111/411/11/1}
 Group   4 Type H   : 5s1p contracted to 3s1p pattern {311/1}
 Group   5 Type Cu  : 17s11p7d1f contracted to 6s4p4d1f pattern {842111/6311/4111/1}

Atom   0C    basis set group =>   1
Atom   1C    basis set group =>   1
Atom   2C    basis set group =>   1
Atom   3C    basis set group =>   1
Atom   4C    basis set group =>   1
Atom   5C    basis set group =>   1
Atom   6O    basis set group =>   2
Atom   7O    basis set group =>   2
Atom   8C    basis set group =>   1
Atom   9C    basis set group =>   1
Atom  10N    basis set group =>   3
Atom  11H    basis set group =>   4
Atom  12H    basis set group =>   4
Atom  13H    basis set group =>   4
Atom  14H    basis set group =>   4
Atom  15H    basis set group =>   4
Atom  16H    basis set group =>   4
Atom  17H    basis set group =>   4
Atom  18H    basis set group =>   4
Atom  19H    basis set group =>   4
Atom  20H    basis set group =>   4
Atom  21H    basis set group =>   4
Atom  22H    basis set group =>   4
Atom  23Cu   basis set group =>   5
---------------------------------
AUXILIARY/J BASIS SET INFORMATION
---------------------------------
There are 5 groups of distinct atoms

 Group   1 Type C   : 12s5p4d2f1g contracted to 6s4p3d1f1g pattern {711111/2111/211/2/1}
 Group   2 Type O   : 12s5p4d2f1g contracted to 6s4p3d1f1g pattern {711111/2111/211/2/1}
 Group   3 Type N   : 12s5p4d2f1g contracted to 6s4p3d1f1g pattern {711111/2111/211/2/1}
 Group   4 Type H   : 5s2p1d contracted to 3s1p1d pattern {311/2/1}
 Group   5 Type Cu  : 19s5p5d3f3g contracted to 8s5p4d3f3g pattern {121111111/11111/2111/111/111}

Atom   0C    basis set group =>   1
Atom   1C    basis set group =>   1
Atom   2C    basis set group =>   1
Atom   3C    basis set group =>   1
Atom   4C    basis set group =>   1
Atom   5C    basis set group =>   1
Atom   6O    basis set group =>   2
Atom   7O    basis set group =>   2
Atom   8C    basis set group =>   1
Atom   9C    basis set group =>   1
Atom  10N    basis set group =>   3
Atom  11H    basis set group =>   4
Atom  12H    basis set group =>   4
Atom  13H    basis set group =>   4
Atom  14H    basis set group =>   4
Atom  15H    basis set group =>   4
Atom  16H    basis set group =>   4
Atom  17H    basis set group =>   4
Atom  18H    basis set group =>   4
Atom  19H    basis set group =>   4
Atom  20H    basis set group =>   4
Atom  21H    basis set group =>   4
Atom  22H    basis set group =>   4
Atom  23Cu   basis set group =>   5


           ************************************************************
           *        Program running with 8 parallel MPI-processes     *
           *              working on a common directory               *
           ************************************************************
------------------------------------------------------------------------------
                           ORCA GTO INTEGRAL CALCULATION
                           -- RI-GTO INTEGRALS CHOSEN --
------------------------------------------------------------------------------
------------------------------------------------------------------------------
                   ___                                                        
                  /   \      - P O W E R E D   B Y -                         
                 /     \                                                     
                 |  |  |   _    _      __       _____    __    __             
                 |  |  |  | |  | |    /  \     |  _  \  |  |  /  |          
                  \  \/   | |  | |   /    \    | | | |  |  | /  /          
                 / \  \   | |__| |  /  /\  \   | |_| |  |  |/  /          
                |  |  |   |  __  | /  /__\  \  |    /   |      \           
                |  |  |   | |  | | |   __   |  |    \   |  |\   \          
                \     /   | |  | | |  |  |  |  | |\  \  |  | \   \       
                 \___/    |_|  |_| |__|  |__|  |_| \__\ |__|  \__/        
                                                                              
                      - O R C A' S   B I G   F R I E N D -                    
                                      &                                       
                       - I N T E G R A L  F E E D E R -                       
                                                                              
 v1 FN, 2020, v2 2021                                                         
------------------------------------------------------------------------------


Reading SHARK input file 2_protonated.SHARKINP.tmp ... ok
----------------------
SHARK INTEGRAL PACKAGE
----------------------

Number of atoms                             ...     24
Number of basis functions                   ...    458
Number of shells                            ...    184
Maximum angular momentum                    ...      3
Integral batch strategy                     ... SHARK/LIBINT Hybrid
RI-J (if used) integral strategy            ... SPLIT-RIJ (Revised 2003 algorithm where possible)
Printlevel                                  ...      1
Contraction scheme used                     ... SEGMENTED contraction
Coulomb Range Separation                    ... NOT USED
Exchange Range Separation                   ... NOT USED
Finite Nucleus Model                        ... NOT USED
Auxiliary Coulomb fitting basis             ... AVAILABLE
   # of basis functions in Aux-J            ...    762
   # of shells in Aux-J                     ...    248
   Maximum angular momentum in Aux-J        ...      4
Auxiliary J/K fitting basis                 ... NOT available
Auxiliary Correlation fitting basis         ... NOT available
Auxiliary 'external' fitting basis          ... NOT available
Integral threshold                          ...     2.500000e-11
Primitive cut-off                           ...     2.500000e-12
Primitive pair pre-selection threshold      ...     2.500000e-12

Calculating pre-screening integrals         ... done (  0.1 sec) Dimension = 184
Organizing shell pair data                  ... done (  0.1 sec)
Shell pair information
Total number of shell pairs                 ...     17020
Shell pairs after pre-screening             ...     13583
Total number of primitive shell pairs       ...     54293
Primitive shell pairs kept                  ...     29757
          la=0 lb=0:   3737 shell pairs
          la=1 lb=0:   3858 shell pairs
          la=1 lb=1:   1023 shell pairs
          la=2 lb=0:   1992 shell pairs
          la=2 lb=1:   1039 shell pairs
          la=2 lb=2:    278 shell pairs
          la=3 lb=0:    886 shell pairs
          la=3 lb=1:    468 shell pairs
          la=3 lb=2:    242 shell pairs
          la=3 lb=3:     60 shell pairs

Calculating one electron integrals          ... done (  0.0 sec)
Calculating RI/J V-Matrix + Cholesky decomp.... done (  0.0 sec)
Calculating Nuclear repulsion               ... done (  0.0 sec) ENN=    841.940499250246 Eh

SHARK setup successfully completed in   0.3 seconds

Maximum memory used throughout the entire GTOINT-calculation: 23.1 MB


           ************************************************************
           *        Program running with 8 parallel MPI-processes     *
           *              working on a common directory               *
           ************************************************************
-------------------------------------------------------------------------------
                                 ORCA SCF
-------------------------------------------------------------------------------

------------
SCF SETTINGS
------------
Hamiltonian:
 Density Functional     Method          .... DFT(GTOs)
 Exchange Functional    Exchange        .... PBE
   PBE kappa parameter   XKappa         ....  0.804000
   PBE mue parameter    XMuePBE         ....  0.219520
 Correlation Functional Correlation     .... PBE
   PBE beta parameter  CBetaPBE         ....  0.066725
 LDA part of GGA corr.  LDAOpt          .... PW91-LDA
 Gradients option       PostSCFGGA      .... off
   Density functional embedding theory  .... OFF
   NL short-range parameter             ....  6.400000
 RI-approximation to the Coulomb term is turned on
   Number of AuxJ basis functions       .... 762


General Settings:
 Integral files         IntName         .... 2_protonated
 Hartree-Fock type      HFTyp           .... UHF
 Total Charge           Charge          ....    1
 Multiplicity           Mult            ....    2
 Number of Electrons    NEL             ....  111
 Basis Dimension        Dim             ....  458
 Nuclear Repulsion      ENuc            ....    841.9404992502 Eh

Convergence Acceleration:
 DIIS                   CNVDIIS         .... on
   Start iteration      DIISMaxIt       ....    12
   Startup error        DIISStart       ....  0.200000
   # of expansion vecs  DIISMaxEq       ....     5
   Bias factor          DIISBfac        ....   1.050
   Max. coefficient     DIISMaxC        ....  10.000
 Trust-Rad. Augm. Hess. CNVTRAH         .... auto
   Auto Start mean grad. ratio tolernc. ....  1.125000
   Auto Start start iteration           ....     1
   Auto Start num. interpolation iter.  ....    10
   Max. Number of Micro iterations      ....    16
   Max. Number of Macro iterations      .... Maxiter - #DIIS iter
   Number of Davidson start vectors     ....     2
   Converg. threshold I  (grad. norm)   ....   1.000e-05
   Converg. threshold II (energy diff.) ....   1.000e-08
   Grad. Scal. Fac. for Micro threshold ....   0.100
   Minimum threshold for Micro iter.    ....   0.010
   NR start threshold (gradient norm)   ....   0.001
   Initial trust radius                 ....   0.400
   Minimum AH scaling param. (alpha)    ....   1.000
   Maximum AH scaling param. (alpha)    .... 1000.000
   Orbital update algorithm             .... Taylor
   White noise on init. David. guess    .... on
   Maximum white noise                  ....   0.010
   Quad. conv. algorithm                .... NR
 SOSCF                  CNVSOSCF        .... off
 Level Shifting         CNVShift        .... on
   Level shift para.    LevelShift      ....    0.2500
   Turn off err/grad.   ShiftErr        ....    0.0010
 Zerner damping         CNVZerner       .... off
 Static damping         CNVDamp         .... on
   Fraction old density DampFac         ....    0.7000
   Max. Damping (<1)    DampMax         ....    0.9800
   Min. Damping (>=0)   DampMin         ....    0.0000
   Turn off err/grad.   DampErr         ....    0.1000
 Fernandez-Rico         CNVRico         .... off

SCF Procedure:
 Maximum # iterations   MaxIter         ....   125
 SCF integral mode      SCFMode         .... Direct
   Integral package                     .... SHARK and LIBINT hybrid scheme
 Reset frequency        DirectResetFreq ....    20
 Integral Threshold     Thresh          ....  2.500e-11 Eh
 Primitive CutOff       TCut            ....  2.500e-12 Eh

Convergence Tolerance:
 Convergence Check Mode ConvCheckMode   .... Total+1el-Energy
 Convergence forced     ConvForced      .... 0
 Energy Change          TolE            ....  1.000e-08 Eh
 1-El. energy change                    ....  1.000e-05 Eh
 DIIS Error             TolErr          ....  5.000e-07


Diagonalization of the overlap matrix:
Smallest eigenvalue                        ... 9.138e-06
Time for diagonalization                   ...    0.058 sec
Threshold for overlap eigenvalues          ... 1.000e-08
Number of eigenvalues below threshold      ... 0
Time for construction of square roots      ...    0.024 sec
Total time needed                          ...    0.085 sec

---------------------
INITIAL GUESS: MOREAD
---------------------
Guess MOs are being read from file: 1_neutral.gbw
[file orca_scf/scfguess.cpp, line 2013, Process 0]: Error: Input geometry does not match current geometry

[file orca_scf/scfguess.cpp, line 2013, Process 5]: Error: Input geometry does not match current geometry

[file orca_scf/scfguess.cpp, line 2013, Process 4]: Error: Input geometry does not match current geometry

[file orca_scf/scfguess.cpp, line 2013, Process 1]: Error: Input geometry does not match current geometry

[file orca_scf/scfguess.cpp, line 2013, Process 2]: Error: Input geometry does not match current geometry

[file orca_scf/scfguess.cpp, line 2013, Process 7]: Error: Input geometry does not match current geometry

[file orca_scf/scfguess.cpp, line 2013, Process 6]: Error: Input geometry does not match current geometry

[file orca_scf/scfguess.cpp, line 2013, Process 3]: Error: Input geometry does not match current geometry


ORCA finished by error termination in SCF
Calling Command: mpirun -np 8  /home/user/ORCA/orca_scf_mpi 2_protonated.gbw b 2_protonated 
Check for SCF-logfiles
[file orca_main/maingopt.cpp, line 1201]: ORCA finished with an error in the energy calculation

