
                                 *****************
                                 * O   R   C   A *
                                 *****************

                                            #,                                       
                                            ###                                      
                                            ####                                     
                                            #####                                    
                                            ######                                   
                                           ########,                                 
                                     ,,################,,,,,                         
                               ,,#################################,,                 
                          ,,##########################################,,             
                       ,#########################################, ''#####,          
                    ,#############################################,,   '####,        
                  ,##################################################,,,,####,       
                ,###########''''           ''''###############################       
              ,#####''   ,,,,##########,,,,          '''####'''          '####       
            ,##' ,,,,###########################,,,                        '##       
           ' ,,###''''                  '''############,,,                           
         ,,##''                                '''############,,,,        ,,,,,,###''
      ,#''                                            '''#######################'''  
     '                                                          ''''####''''         
             ,#######,   #######,   ,#######,      ##                                
            ,#'     '#,  ##    ##  ,#'     '#,    #''#        ######   ,####,        
            ##       ##  ##   ,#'  ##            #'  '#       #        #'  '#        
            ##       ##  #######   ##           ,######,      #####,   #    #        
            '#,     ,#'  ##    ##  '#,     ,#' ,#      #,         ##   #,  ,#        
             '#######'   ##     ##  '#######'  #'      '#     #####' # '####'        



                  #######################################################
                  #                        -***-                        #
                  #          Department of theory and spectroscopy      #
                  #    Directorship and core code : Frank Neese         #
                  #        Max Planck Institute fuer Kohlenforschung    #
                  #                Kaiser Wilhelm Platz 1               #
                  #                 D-45470 Muelheim/Ruhr               #
                  #                      Germany                        #
                  #                                                     #
                  #                  All rights reserved                #
                  #                        -***-                        #
                  #######################################################


                         Program Version 5.0.1 -  RELEASE  -


 With contributions from (in alphabetic order):
   Daniel Aravena         : Magnetic Suceptibility
   Michael Atanasov       : Ab Initio Ligand Field Theory (pilot matlab implementation)
   Alexander A. Auer      : GIAO ZORA, VPT2 properties, NMR spectrum
   Ute Becker             : Parallelization
   Giovanni Bistoni       : ED, misc. LED, open-shell LED, HFLD
   Martin Brehm           : Molecular dynamics
   Dmytro Bykov           : SCF Hessian
   Vijay G. Chilkuri      : MRCI spin determinant printing, contributions to CSF-ICE
   Dipayan Datta          : RHF DLPNO-CCSD density
   Achintya Kumar Dutta   : EOM-CC, STEOM-CC
   Dmitry Ganyushin       : Spin-Orbit,Spin-Spin,Magnetic field MRCI
   Miquel Garcia          : C-PCM and meta-GGA Hessian, CC/C-PCM, Gaussian charge scheme
   Yang Guo               : DLPNO-NEVPT2, F12-NEVPT2, CIM, IAO-localization
   Andreas Hansen         : Spin unrestricted coupled pair/coupled cluster methods
   Benjamin Helmich-Paris : MC-RPA, TRAH-SCF, COSX integrals
   Lee Huntington         : MR-EOM, pCC
   Robert Izsak           : Overlap fitted RIJCOSX, COSX-SCS-MP3, EOM
   Marcus Kettner         : VPT2
   Christian Kollmar      : KDIIS, OOCD, Brueckner-CCSD(T), CCSD density, CASPT2, CASPT2-K
   Simone Kossmann        : Meta GGA functionals, TD-DFT gradient, OOMP2, MP2 Hessian
   Martin Krupicka        : Initial AUTO-CI
   Lucas Lang             : DCDCAS
   Marvin Lechner         : AUTO-CI (C++ implementation), FIC-MRCC
   Dagmar Lenk            : GEPOL surface, SMD
   Dimitrios Liakos       : Extrapolation schemes; Compound Job, initial MDCI parallelization
   Dimitrios Manganas     : Further ROCIS development; embedding schemes
   Dimitrios Pantazis     : SARC Basis sets
   Anastasios Papadopoulos: AUTO-CI, single reference methods and gradients
   Taras Petrenko         : DFT Hessian,TD-DFT gradient, ASA, ECA, R-Raman, ABS, FL, XAS/XES, NRVS
   Peter Pinski           : DLPNO-MP2, DLPNO-MP2 Gradient
   Christoph Reimann      : Effective Core Potentials
   Marius Retegan         : Local ZFS, SOC
   Christoph Riplinger    : Optimizer, TS searches, QM/MM, DLPNO-CCSD(T), (RO)-DLPNO pert. Triples
   Tobias Risthaus        : Range-separated hybrids, TD-DFT gradient, RPA, STAB
   Michael Roemelt        : Original ROCIS implementation
   Masaaki Saitow         : Open-shell DLPNO-CCSD energy and density
   Barbara Sandhoefer     : DKH picture change effects
   Avijit Sen             : IP-ROCIS
   Kantharuban Sivalingam : CASSCF convergence, NEVPT2, FIC-MRCI
   Bernardo de Souza      : ESD, SOC TD-DFT
   Georgi Stoychev        : AutoAux, RI-MP2 NMR, DLPNO-MP2 response
   Willem Van den Heuvel  : Paramagnetic NMR
   Boris Wezisla          : Elementary symmetry handling
   Frank Wennmohs         : Technical directorship


 We gratefully acknowledge several colleagues who have allowed us to
 interface, adapt or use parts of their codes:
   Stefan Grimme, W. Hujo, H. Kruse, P. Pracht,  : VdW corrections, initial TS optimization,
                  C. Bannwarth, S. Ehlert          DFT functionals, gCP, sTDA/sTD-DF
   Ed Valeev, F. Pavosevic, A. Kumar             : LibInt (2-el integral package), F12 methods
   Garnet Chan, S. Sharma, J. Yang, R. Olivares  : DMRG
   Ulf Ekstrom                                   : XCFun DFT Library
   Mihaly Kallay                                 : mrcc  (arbitrary order and MRCC methods)
   Jiri Pittner, Ondrej Demel                    : Mk-CCSD
   Frank Weinhold                                : gennbo (NPA and NBO analysis)
   Christopher J. Cramer and Donald G. Truhlar   : smd solvation model
   Lars Goerigk                                  : TD-DFT with DH, B97 family of functionals
   V. Asgeirsson, H. Jonsson                     : NEB implementation
   FAccTs GmbH                                   : IRC, NEB, NEB-TS, DLPNO-Multilevel, CI-OPT
                                                   MM, QMMM, 2- and 3-layer-ONIOM, Crystal-QMMM,
                                                   LR-CPCM, SF, NACMEs, symmetry and pop. for TD-DFT,
                                                   nearIR, NL-DFT gradient (VV10), updates on ESD,
                                                   ML-optimized integration grids
   S Lehtola, MJT Oliveira, MAL Marques          : LibXC Library
   Liviu Ungur et al                             : ANISO software


 Your calculation uses the libint2 library for the computation of 2-el integrals
 For citations please refer to: http://libint.valeyev.net

 Your ORCA version has been built with support for libXC version: 5.1.0
 For citations please refer to: https://tddft.org/programs/libxc/

 This ORCA versions uses:
   CBLAS   interface :  Fast vector & matrix operations
   LAPACKE interface :  Fast linear algebra routines
   SCALAPACK package :  Parallel linear algebra routines
   Shared memory     :  Shared parallel matrices
   BLAS/LAPACK       :  OpenBLAS 0.3.15  USE64BITINT DYNAMIC_ARCH NO_AFFINITY Haswell SINGLE_THREADED
        Core in use  :  Haswell
   Copyright (c) 2011-2014, The OpenBLAS Project


Your calculation utilizes the atom-pairwise dispersion correction
with the Becke-Johnson damping scheme (D3BJ)
Cite in your paper:
S.Grimme, S.Ehrlich, L.Goerigk, J Comput Chem, (2011), 32, 1456–1465 
S.Grimme, J.Antony, S.Ehrlich and H.Krieg, J.Chem.Phys., 132, (2010), 154104 
   

================================================================================

----- Orbital basis set information -----
Your calculation utilizes the basis: def2-TZVP
   F. Weigend and R. Ahlrichs, Phys. Chem. Chem. Phys. 7, 3297 (2005).

----- AuxJ basis set information -----
Your calculation utilizes the auxiliary basis: def2/J
   F. Weigend, Phys. Chem. Chem. Phys. 8, 1057 (2006).

================================================================================
                                        WARNINGS
                       Please study these warnings very carefully!
================================================================================


WARNING: your system is open-shell and RHF/RKS was chosen
  ===> : WILL SWITCH to UHF/UKS


WARNING: The environment variable RSH_COMMAND is not set!
  ===> : All Displacements for the Numerical Hessian calculation
         will be started on localhost

WARNING: Geometry Optimization
  ===> : Switching off AutoStart
         For restart on a previous wavefunction, please use MOREAD

INFO   : the flag for use of the SHARK integral package has been found!

================================================================================
                                       INPUT FILE
================================================================================
NAME = ex.inp
|  1> ! PBE D3 def2-TZVP opt numfreq 
|  2> %base "2_protonated"
|  3> %pal nprocs=2 end
|  4> %geom maxiter=75 end
|  5> *xyz 1 2
|  6> C     -1.17699   -1.60635    0.21153
|  7> C      0.05430    0.76537   -0.59240
|  8> C     -1.89164   -0.41153    0.24864
|  9> C      0.15423   -1.62364   -0.21649
| 10> C      0.78046   -0.44392   -0.62984
| 11> C     -1.27540    0.79152   -0.16193
| 12> O     -3.19062   -0.27781    0.64406
| 13> O     -1.95422    1.96039   -0.15847
| 14> C      2.24399   -0.42394   -0.99999
| 15> C      3.11172   -0.24467    0.25146
| 16> N      2.62510    0.97350    1.01239
| 17> H      1.57449    0.97651    0.93726
| 18> H      2.90818    0.96715    2.00041
| 19> H      2.96307    1.84717    0.58617
| 20> H     -1.66430   -2.53613    0.51405
| 21> H      0.47251    1.69247   -0.99593
| 22> H      0.69338   -2.57192   -0.24701
| 23> H     -3.58401   -1.14591    0.84219
| 24> H     -2.87225    1.78236    0.12991
| 25> H      2.45755    0.37896   -1.72345
| 26> H      2.55108   -1.36666   -1.47424
| 27> H      2.99426   -1.09553    0.93406
| 28> H      4.17647   -0.10042    0.02936
| 29> Cu    -5.82487    2.08491    1.00494
| 30> **                         ****END OF INPUT****
================================================================================

                       *****************************
                       * Geometry Optimization Run *
                       *****************************

Geometry optimization settings:
Update method            Update   .... BFGS
Choice of coordinates    CoordSys .... Z-matrix Internals
Initial Hessian          InHess   .... Almoef's Model

Convergence Tolerances:
Energy Change            TolE     ....  5.0000e-06 Eh
Max. Gradient            TolMAXG  ....  3.0000e-04 Eh/bohr
RMS Gradient             TolRMSG  ....  1.0000e-04 Eh/bohr
Max. Displacement        TolMAXD  ....  4.0000e-03 bohr
RMS Displacement         TolRMSD  ....  2.0000e-03 bohr
Strict Convergence                ....  False
------------------------------------------------------------------------------
                        ORCA OPTIMIZATION COORDINATE SETUP
------------------------------------------------------------------------------

The optimization will be done in new redundant internal coordinates
Making redundant internal coordinates   ...  (new redundants) done
Evaluating the initial hessian          ...  (Almloef) done
Evaluating the coordinates              ...  done
Calculating the B-matrix                .... done
Calculating the G-matrix                .... done
Diagonalizing the G-matrix              .... done
Small eigenvalue found = 1.062e-02
Small eigenvalue found = 2.646e-02
The first mode is                       ....   67
The number of degrees of freedom        ....   66

    -----------------------------------------------------------------
                    Redundant Internal Coordinates


    -----------------------------------------------------------------
         Definition                    Initial Value    Approx d2E/dq
    -----------------------------------------------------------------
      1. B(C   2,C   0)                  1.3927         0.618562   
      2. B(C   3,C   0)                  1.3984         0.605712   
      3. B(C   4,C   1)                  1.4111         0.578279   
      4. B(C   4,C   3)                  1.3981         0.606417   
      5. B(C   5,C   2)                  1.4127         0.574861   
      6. B(C   5,C   1)                  1.3979         0.606952   
      7. B(O   6,C   2)                  1.3644         0.614779   
      8. B(O   7,C   5)                  1.3517         0.644164   
      9. B(C   8,C   4)                  1.5097         0.402432   
     10. B(C   9,C   8)                  1.5334         0.368980   
     11. B(N  10,C   9)                  1.5165         0.351612   
     12. B(H  11,N  10)                  1.0533         0.369077   
     13. B(H  12,N  10)                  1.0278         0.405329   
     14. B(H  13,N  10)                  1.0292         0.403287   
     15. B(H  14,C   0)                  1.0925         0.356854   
     16. B(H  15,C   1)                  1.0942         0.354600   
     17. B(H  16,C   3)                  1.0913         0.358437   
     18. B(H  17,O   6)                  0.9735         0.494886   
     19. B(H  18,O   7)                  0.9786         0.485634   
     20. B(H  19,C   8)                  1.1017         0.345003   
     21. B(H  20,C   8)                  1.0991         0.348309   
     22. B(H  21,C   9)                  1.0971         0.350786   
     23. B(H  22,C   9)                  1.0972         0.350711   
     24. B(Cu 23,H  18)                  3.0944         0.002310   
     25. B(Cu 23,H  17)                  3.9352         0.000105   
     26. B(Cu 23,O   6)                  3.5570         0.001976   
     27. A(C   3,C   0,H  14)          119.9242         0.350982   
     28. A(C   2,C   0,H  14)          119.5957         0.352230   
     29. A(C   2,C   0,C   3)          120.4791         0.432069   
     30. A(C   5,C   1,H  15)          117.4699         0.350728   
     31. A(C   4,C   1,H  15)          121.3094         0.347877   
     32. A(C   4,C   1,C   5)          120.9119         0.427037   
     33. A(C   0,C   2,C   5)          119.9348         0.428034   
     34. A(C   0,C   2,O   6)          125.4736         0.430393   
     35. A(C   5,C   2,O   6)          114.5868         0.424778   
     36. A(C   0,C   3,H  16)          119.3153         0.351245   
     37. A(C   0,C   3,C   4)          120.4263         0.430533   
     38. A(C   4,C   3,H  16)          120.2430         0.351314   
     39. A(C   3,C   4,C   8)          121.1879         0.400345   
     40. A(C   1,C   4,C   8)          119.6058         0.397015   
     41. A(C   1,C   4,C   3)          118.9984         0.426969   
     42. A(C   1,C   5,C   2)          119.2428         0.426583   
     43. A(C   2,C   5,O   7)          121.1054         0.428345   
     44. A(C   1,C   5,O   7)          119.6479         0.432543   
     45. A(C   2,O   6,H  17)          110.8749         0.366458   
     46. A(H  17,O   6,Cu 23)          105.8088         0.176609   
     47. A(C   2,O   6,Cu 23)          143.0906         0.195762   
     48. A(C   5,O   7,H  18)          108.3341         0.368210   
     49. A(C   9,C   8,H  19)          109.9411         0.321397   
     50. A(C   4,C   8,H  19)          111.0124         0.326007   
     51. A(C   4,C   8,C   9)          110.4888         0.367231   
     52. A(H  19,C   8,H  20)          106.7145         0.287392   
     53. A(C   9,C   8,H  20)          107.1176         0.321899   
     54. A(C   4,C   8,H  20)          111.4260         0.326519   
     55. A(C   8,C   9,N  10)          108.7743         0.356637   
     56. A(H  21,C   9,H  22)          109.3780         0.288450   
     57. A(N  10,C   9,H  22)          107.9002         0.317831   
     58. A(C   8,C   9,H  22)          113.5361         0.322262   
     59. A(N  10,C   9,H  21)          106.0472         0.317842   
     60. A(C   8,C   9,H  21)          110.8868         0.322273   
     61. A(C   9,N  10,H  11)          106.6528         0.317793   
     62. A(H  12,N  10,H  13)          108.2348         0.296773   
     63. A(H  11,N  10,H  13)          107.1928         0.292413   
     64. A(C   9,N  10,H  13)          111.6375         0.322429   
     65. A(H  11,N  10,H  12)          110.0786         0.292646   
     66. A(C   9,N  10,H  12)          112.8929         0.322696   
     67. A(O   6,H  17,Cu 23)           60.4220         0.130156   
     68. A(O   7,H  18,Cu 23)          163.8804         0.171455   
     69. A(H  17,Cu 23,H  18)           50.5567         0.103968   
     70. A(O   6,Cu 23,H  18)           36.8413         0.120863   
     71. A(O   6,Cu 23,H  17)           13.7692         0.104836   
     72. D(O   6,C   2,C   0,H  14)      0.1996         0.026469   
     73. D(C   5,C   2,C   0,H  14)   -178.9557         0.026469   
     74. D(O   6,C   2,C   0,C   3)    179.8427         0.026469   
     75. D(C   5,C   2,C   0,C   3)      0.6874         0.026469   
     76. D(H  16,C   3,C   0,H  14)      0.2161         0.025319   
     77. D(C   4,C   3,C   0,H  14)    178.7947         0.025319   
     78. D(H  16,C   3,C   0,C   2)   -179.4258         0.025319   
     79. D(C   4,C   3,C   0,C   2)     -0.8472         0.025319   
     80. D(C   8,C   4,C   1,C   5)   -175.4167         0.022969   
     81. D(C   8,C   4,C   1,H  15)     11.1260         0.022969   
     82. D(C   1,C   4,C   3,H  16)    179.3538         0.025381   
     83. D(C   3,C   4,C   1,H  15)   -174.0497         0.022969   
     84. D(C   1,C   4,C   3,C   0)      0.7884         0.025381   
     85. D(C   8,C   4,C   3,C   0)    175.5280         0.025381   
     86. D(C   3,C   4,C   1,C   5)     -0.5924         0.022969   
     87. D(C   8,C   4,C   3,H  16)     -5.9066         0.025381   
     88. D(O   7,C   5,C   2,O   6)     -0.4501         0.022686   
     89. D(O   7,C   5,C   1,H  15)     -5.1458         0.025428   
     90. D(C   1,C   5,C   2,O   6)   -179.7265         0.022686   
     91. D(C   1,C   5,C   2,C   0)     -0.4830         0.022686   
     92. D(O   7,C   5,C   1,C   4)   -178.8465         0.025428   
     93. D(O   7,C   5,C   2,C   0)    178.7934         0.022686   
     94. D(C   2,C   5,C   1,H  15)    174.1413         0.025428   
     95. D(C   2,C   5,C   1,C   4)      0.4406         0.025428   
     96. D(Cu 23,O   6,C   2,C   5)      1.8322         0.030565   
     97. D(H  17,O   6,C   2,C   0)     -4.0251         0.030565   
     98. D(H  17,O   6,C   2,C   5)    175.1700         0.030565   
     99. D(Cu 23,O   6,C   2,C   0)   -177.3628         0.030565   
    100. D(H  18,O   7,C   5,C   2)     -1.9016         0.030622   
    101. D(H  18,O   7,C   5,C   1)    177.3719         0.030622   
    102. D(C   9,C   8,C   4,C   1)     89.7502         0.012013   
    103. D(H  20,C   8,C   4,C   3)     34.0003         0.012013   
    104. D(H  20,C   8,C   4,C   1)   -151.2917         0.012013   
    105. D(H  19,C   8,C   4,C   3)    152.7965         0.012013   
    106. D(H  19,C   8,C   4,C   1)    -32.4954         0.012013   
    107. D(C   9,C   8,C   4,C   3)    -84.9578         0.012013   
    108. D(H  22,C   9,C   8,H  20)     65.5065         0.010887   
    109. D(H  22,C   9,C   8,H  19)    -50.0793         0.010887   
    110. D(H  22,C   9,C   8,C   4)   -172.9515         0.010887   
    111. D(H  21,C   9,C   8,H  20)    -58.1059         0.010887   
    112. D(H  21,C   9,C   8,H  19)   -173.6917         0.010887   
    113. D(H  21,C   9,C   8,C   4)     63.4361         0.010887   
    114. D(N  10,C   9,C   8,H  20)   -174.3512         0.010887   
    115. D(N  10,C   9,C   8,H  19)     70.0630         0.010887   
    116. D(N  10,C   9,C   8,C   4)    -52.8092         0.010887   
    117. D(H  13,N  10,C   9,H  22)     44.8172         0.011391   
    118. D(H  13,N  10,C   9,H  21)    161.9285         0.011391   
    119. D(H  13,N  10,C   9,C   8)    -78.7571         0.011391   
    120. D(H  12,N  10,C   9,H  22)    -77.3860         0.011391   
    121. D(H  12,N  10,C   9,H  21)     39.7253         0.011391   
    122. D(H  12,N  10,C   9,C   8)    159.0397         0.011391   
    123. D(H  11,N  10,C   9,H  22)    161.5976         0.011391   
    124. D(H  11,N  10,C   9,H  21)    -81.2912         0.011391   
    125. D(H  11,N  10,C   9,C   8)     38.0233         0.011391   
    126. D(Cu 23,H  17,O   6,C   2)   -175.8474         0.304403   
    127. D(Cu 23,H  18,O   7,C   5)    174.3669         0.255542   
    128. D(H  17,Cu 23,H  18,O   7)   -174.1999         0.001500   
    129. D(O   6,Cu 23,H  18,O   7)   -172.4224         0.001500   
    130. D(H  18,Cu 23,H  17,O   6)      4.4816         0.001500   
    131. D(H  18,Cu 23,O   6,H  17)   -174.2240         0.001500   
    132. D(H  18,Cu 23,O   6,C   2)     -0.6928         0.001500   
    133. D(H  17,Cu 23,O   6,C   2)    173.5312         0.001500   
    -----------------------------------------------------------------

Number of atoms                         .... 24
Number of degrees of freedom            .... 133

         *************************************************************
         *                GEOMETRY OPTIMIZATION CYCLE   1            *
         *************************************************************
---------------------------------
CARTESIAN COORDINATES (ANGSTROEM)
---------------------------------
  C     -1.176990   -1.606350    0.211530
  C      0.054300    0.765370   -0.592400
  C     -1.891640   -0.411530    0.248640
  C      0.154230   -1.623640   -0.216490
  C      0.780460   -0.443920   -0.629840
  C     -1.275400    0.791520   -0.161930
  O     -3.190620   -0.277810    0.644060
  O     -1.954220    1.960390   -0.158470
  C      2.243990   -0.423940   -0.999990
  C      3.111720   -0.244670    0.251460
  N      2.625100    0.973500    1.012390
  H      1.574490    0.976510    0.937260
  H      2.908180    0.967150    2.000410
  H      2.963070    1.847170    0.586170
  H     -1.664300   -2.536130    0.514050
  H      0.472510    1.692470   -0.995930
  H      0.693380   -2.571920   -0.247010
  H     -3.584010   -1.145910    0.842190
  H     -2.872250    1.782360    0.129910
  H      2.457550    0.378960   -1.723450
  H      2.551080   -1.366660   -1.474240
  H      2.994260   -1.095530    0.934060
  H      4.176470   -0.100420    0.029360
  Cu    -5.824870    2.084910    1.004940

----------------------------
CARTESIAN COORDINATES (A.U.)
----------------------------
  NO LB      ZA    FRAG     MASS         X           Y           Z
   0 C     6.0000    0    12.011   -2.224189   -3.035562    0.399734
   1 C     6.0000    0    12.011    0.102612    1.446340   -1.119474
   2 C     6.0000    0    12.011   -3.574682   -0.777679    0.469862
   3 C     6.0000    0    12.011    0.291452   -3.068235   -0.409107
   4 C     6.0000    0    12.011    1.474856   -0.838887   -1.190225
   5 C     6.0000    0    12.011   -2.410157    1.495756   -0.306003
   6 O     8.0000    0    15.999   -6.029398   -0.524985    1.217097
   7 O     8.0000    0    15.999   -3.692941    3.704600   -0.299465
   8 C     6.0000    0    12.011    4.240527   -0.801130   -1.889707
   9 C     6.0000    0    12.011    5.880299   -0.462359    0.475191
  10 N     7.0000    0    14.007    4.960720    1.839648    1.913140
  11 H     1.0000    0     1.008    2.975355    1.845336    1.771165
  12 H     1.0000    0     1.008    5.495664    1.827649    3.780227
  13 H     1.0000    0     1.008    5.599391    3.490645    1.107701
  14 H     1.0000    0     1.008   -3.145071   -4.792591    0.971414
  15 H     1.0000    0     1.008    0.892914    3.198305   -1.882035
  16 H     1.0000    0     1.008    1.310298   -4.860224   -0.466781
  17 H     1.0000    0     1.008   -6.772797   -2.165456    1.591508
  18 H     1.0000    0     1.008   -5.427766    3.368172    0.245494
  19 H     1.0000    0     1.008    4.644096    0.716131   -3.256849
  20 H     1.0000    0     1.008    4.820843   -2.582613   -2.785910
  21 H     1.0000    0     1.008    5.658331   -2.070252    1.765118
  22 H     1.0000    0     1.008    7.892385   -0.189766    0.055482
  23 Cu   29.0000    0    63.550  -11.007409    3.939909    1.899061

--------------------------------
INTERNAL COORDINATES (ANGSTROEM)
--------------------------------
 C      0   0   0     0.000000000000     0.00000000     0.00000000
 C      1   0   0     2.790597474986     0.00000000     0.00000000
 C      1   2   0     1.392729911720    60.32750606     0.00000000
 C      1   2   3     1.398444404651    60.15311721   180.44155676
 C      4   1   2     1.398127860319   120.42634560   359.59800303
 C      2   1   3     1.397887811450    60.49362529   359.75552039
 O      3   1   2     1.364399888303   125.47356514   179.39830364
 O      6   2   1     1.351689920396   119.64792203   180.95291381
 C      5   4   1     1.509745105572   121.18789882   175.52795997
 C      9   5   4     1.533368901569   110.48884268   275.04215978
 N     10   9   5     1.516493204139   108.77433713   307.19078148
 H     11  10   9     1.053297179860   106.65280909    38.02328769
 H     11  10   9     1.027792843573   112.89288909   159.03970893
 H     11  10   9     1.029167857155   111.63753230   281.24291654
 H      1   2   3     1.092465209927   179.29926062    83.90454561
 H      2   1   3     1.094189414590   174.26695548   289.08308687
 H      4   1   2     1.091260349917   119.31532002   181.01936953
 H      7   3   1     0.973452001385   110.87490418   355.97492682
 H      8   6   2     0.978589181526   108.33411774   177.37187681
 H      9   5   4     1.101658138989   111.01241047   152.79650451
 H      9   5   4     1.099062477296   111.42603513    34.00026413
 H     10   9   5     1.097133697960   110.88681723    63.43614013
 H     10   9   5     1.097191430426   113.53614013   187.04849535
 Cu    19   8   6     3.094378591543   163.88037095   174.36686505

---------------------------
INTERNAL COORDINATES (A.U.)
---------------------------
 C      0   0   0     0.000000000000     0.00000000     0.00000000
 C      1   0   0     5.273464977736     0.00000000     0.00000000
 C      1   2   0     2.631878111671    60.32750606     0.00000000
 C      1   2   3     2.642676938305    60.15311721   180.44155676
 C      4   1   2     2.642078756208   120.42634560   359.59800303
 C      2   1   3     2.641625129587    60.49362529   359.75552039
 O      3   1   2     2.578342126045   125.47356514   179.39830364
 O      6   2   1     2.554323767530   119.64792203   180.95291381
 C      5   4   1     2.853004781560   121.18789882   175.52795997
 C      9   5   4     2.897647286238   110.48884268   275.04215978
 N     10   9   5     2.865756839776   108.77433713   307.19078148
 H     11  10   9     1.990443207566   106.65280909    38.02328769
 H     11  10   9     1.942246996757   112.89288909   159.03970893
 H     11  10   9     1.944845395857   111.63753230   281.24291654
 H      1   2   3     2.064460057598   179.29926062    83.90454561
 H      2   1   3     2.067718332210   174.26695548   289.08308687
 H      4   1   2     2.062183202149   119.31532002   181.01936953
 H      7   3   1     1.839557687135   110.87490418   355.97492682
 H      8   6   2     1.849265550703   108.33411774   177.37187681
 H      9   5   4     2.081832175894   111.01241047   152.79650451
 H      9   5   4     2.076927086158   111.42603513    34.00026413
 H     10   9   5     2.073282221441   110.88681723    63.43614013
 H     10   9   5     2.073391319990   113.53614013   187.04849535
 Cu    19   8   6     5.847528092685   163.88037095   174.36686505

---------------------
BASIS SET INFORMATION
---------------------
There are 5 groups of distinct atoms

 Group   1 Type C   : 11s6p2d1f contracted to 5s3p2d1f pattern {62111/411/11/1}
 Group   2 Type O   : 11s6p2d1f contracted to 5s3p2d1f pattern {62111/411/11/1}
 Group   3 Type N   : 11s6p2d1f contracted to 5s3p2d1f pattern {62111/411/11/1}
 Group   4 Type H   : 5s1p contracted to 3s1p pattern {311/1}
 Group   5 Type Cu  : 17s11p7d1f contracted to 6s4p4d1f pattern {842111/6311/4111/1}

Atom   0C    basis set group =>   1
Atom   1C    basis set group =>   1
Atom   2C    basis set group =>   1
Atom   3C    basis set group =>   1
Atom   4C    basis set group =>   1
Atom   5C    basis set group =>   1
Atom   6O    basis set group =>   2
Atom   7O    basis set group =>   2
Atom   8C    basis set group =>   1
Atom   9C    basis set group =>   1
Atom  10N    basis set group =>   3
Atom  11H    basis set group =>   4
Atom  12H    basis set group =>   4
Atom  13H    basis set group =>   4
Atom  14H    basis set group =>   4
Atom  15H    basis set group =>   4
Atom  16H    basis set group =>   4
Atom  17H    basis set group =>   4
Atom  18H    basis set group =>   4
Atom  19H    basis set group =>   4
Atom  20H    basis set group =>   4
Atom  21H    basis set group =>   4
Atom  22H    basis set group =>   4
Atom  23Cu   basis set group =>   5
---------------------------------
AUXILIARY/J BASIS SET INFORMATION
---------------------------------
There are 5 groups of distinct atoms

 Group   1 Type C   : 12s5p4d2f1g contracted to 6s4p3d1f1g pattern {711111/2111/211/2/1}
 Group   2 Type O   : 12s5p4d2f1g contracted to 6s4p3d1f1g pattern {711111/2111/211/2/1}
 Group   3 Type N   : 12s5p4d2f1g contracted to 6s4p3d1f1g pattern {711111/2111/211/2/1}
 Group   4 Type H   : 5s2p1d contracted to 3s1p1d pattern {311/2/1}
 Group   5 Type Cu  : 19s5p5d3f3g contracted to 8s5p4d3f3g pattern {121111111/11111/2111/111/111}

Atom   0C    basis set group =>   1
Atom   1C    basis set group =>   1
Atom   2C    basis set group =>   1
Atom   3C    basis set group =>   1
Atom   4C    basis set group =>   1
Atom   5C    basis set group =>   1
Atom   6O    basis set group =>   2
Atom   7O    basis set group =>   2
Atom   8C    basis set group =>   1
Atom   9C    basis set group =>   1
Atom  10N    basis set group =>   3
Atom  11H    basis set group =>   4
Atom  12H    basis set group =>   4
Atom  13H    basis set group =>   4
Atom  14H    basis set group =>   4
Atom  15H    basis set group =>   4
Atom  16H    basis set group =>   4
Atom  17H    basis set group =>   4
Atom  18H    basis set group =>   4
Atom  19H    basis set group =>   4
Atom  20H    basis set group =>   4
Atom  21H    basis set group =>   4
Atom  22H    basis set group =>   4
Atom  23Cu   basis set group =>   5


           ************************************************************
           *        Program running with 2 parallel MPI-processes     *
           *              working on a common directory               *
           ************************************************************
------------------------------------------------------------------------------
                           ORCA GTO INTEGRAL CALCULATION
                           -- RI-GTO INTEGRALS CHOSEN --
------------------------------------------------------------------------------
------------------------------------------------------------------------------
                   ___                                                        
                  /   \      - P O W E R E D   B Y -                         
                 /     \                                                     
                 |  |  |   _    _      __       _____    __    __             
                 |  |  |  | |  | |    /  \     |  _  \  |  |  /  |          
                  \  \/   | |  | |   /    \    | | | |  |  | /  /          
                 / \  \   | |__| |  /  /\  \   | |_| |  |  |/  /          
                |  |  |   |  __  | /  /__\  \  |    /   |      \           
                |  |  |   | |  | | |   __   |  |    \   |  |\   \          
                \     /   | |  | | |  |  |  |  | |\  \  |  | \   \       
                 \___/    |_|  |_| |__|  |__|  |_| \__\ |__|  \__/        
                                                                              
                      - O R C A' S   B I G   F R I E N D -                    
                                      &                                       
                       - I N T E G R A L  F E E D E R -                       
                                                                              
 v1 FN, 2020, v2 2021                                                         
------------------------------------------------------------------------------


Reading SHARK input file 2_protonated.SHARKINP.tmp ... ok
----------------------
SHARK INTEGRAL PACKAGE
----------------------

Number of atoms                             ...     24
Number of basis functions                   ...    458
Number of shells                            ...    184
Maximum angular momentum                    ...      3
Integral batch strategy                     ... SHARK/LIBINT Hybrid
RI-J (if used) integral strategy            ... SPLIT-RIJ (Revised 2003 algorithm where possible)
Printlevel                                  ...      1
Contraction scheme used                     ... SEGMENTED contraction
Coulomb Range Separation                    ... NOT USED
Exchange Range Separation                   ... NOT USED
Finite Nucleus Model                        ... NOT USED
Auxiliary Coulomb fitting basis             ... AVAILABLE
   # of basis functions in Aux-J            ...    762
   # of shells in Aux-J                     ...    248
   Maximum angular momentum in Aux-J        ...      4
Auxiliary J/K fitting basis                 ... NOT available
Auxiliary Correlation fitting basis         ... NOT available
Auxiliary 'external' fitting basis          ... NOT available
Integral threshold                          ...     2.500000e-11
Primitive cut-off                           ...     2.500000e-12
Primitive pair pre-selection threshold      ...     2.500000e-12

Calculating pre-screening integrals         ... done (  0.1 sec) Dimension = 184
Organizing shell pair data                  ... done (  0.1 sec)
Shell pair information
Total number of shell pairs                 ...     17020
Shell pairs after pre-screening             ...     13583
Total number of primitive shell pairs       ...     54293
Primitive shell pairs kept                  ...     29757
          la=0 lb=0:   3737 shell pairs
          la=1 lb=0:   3858 shell pairs
          la=1 lb=1:   1023 shell pairs
          la=2 lb=0:   1992 shell pairs
          la=2 lb=1:   1039 shell pairs
          la=2 lb=2:    278 shell pairs
          la=3 lb=0:    886 shell pairs
          la=3 lb=1:    468 shell pairs
          la=3 lb=2:    242 shell pairs
          la=3 lb=3:     60 shell pairs

Calculating one electron integrals          ... done (  0.0 sec)
Calculating RI/J V-Matrix + Cholesky decomp.... done (  0.0 sec)
Calculating Nuclear repulsion               ... done (  0.0 sec) ENN=    841.940499250246 Eh

SHARK setup successfully completed in   0.4 seconds

Maximum memory used throughout the entire GTOINT-calculation: 26.4 MB


           ************************************************************
           *        Program running with 2 parallel MPI-processes     *
           *              working on a common directory               *
           ************************************************************
-------------------------------------------------------------------------------
                                 ORCA SCF
-------------------------------------------------------------------------------

------------
SCF SETTINGS
------------
Hamiltonian:
 Density Functional     Method          .... DFT(GTOs)
 Exchange Functional    Exchange        .... PBE
   PBE kappa parameter   XKappa         ....  0.804000
   PBE mue parameter    XMuePBE         ....  0.219520
 Correlation Functional Correlation     .... PBE
   PBE beta parameter  CBetaPBE         ....  0.066725
 LDA part of GGA corr.  LDAOpt          .... PW91-LDA
 Gradients option       PostSCFGGA      .... off
   Density functional embedding theory  .... OFF
   NL short-range parameter             ....  6.400000
 RI-approximation to the Coulomb term is turned on
   Number of AuxJ basis functions       .... 762


General Settings:
 Integral files         IntName         .... 2_protonated
 Hartree-Fock type      HFTyp           .... UHF
 Total Charge           Charge          ....    1
 Multiplicity           Mult            ....    2
 Number of Electrons    NEL             ....  111
 Basis Dimension        Dim             ....  458
 Nuclear Repulsion      ENuc            ....    841.9404992502 Eh

Convergence Acceleration:
 DIIS                   CNVDIIS         .... on
   Start iteration      DIISMaxIt       ....    12
   Startup error        DIISStart       ....  0.200000
   # of expansion vecs  DIISMaxEq       ....     5
   Bias factor          DIISBfac        ....   1.050
   Max. coefficient     DIISMaxC        ....  10.000
 Trust-Rad. Augm. Hess. CNVTRAH         .... auto
   Auto Start mean grad. ratio tolernc. ....  1.125000
   Auto Start start iteration           ....    20
   Auto Start num. interpolation iter.  ....    10
   Max. Number of Micro iterations      ....    16
   Max. Number of Macro iterations      .... Maxiter - #DIIS iter
   Number of Davidson start vectors     ....     2
   Converg. threshold I  (grad. norm)   ....   1.000e-05
   Converg. threshold II (energy diff.) ....   1.000e-08
   Grad. Scal. Fac. for Micro threshold ....   0.100
   Minimum threshold for Micro iter.    ....   0.010
   NR start threshold (gradient norm)   ....   0.001
   Initial trust radius                 ....   0.400
   Minimum AH scaling param. (alpha)    ....   1.000
   Maximum AH scaling param. (alpha)    .... 1000.000
   Orbital update algorithm             .... Taylor
   White noise on init. David. guess    .... on
   Maximum white noise                  ....   0.010
   Quad. conv. algorithm                .... NR
 SOSCF                  CNVSOSCF        .... off
 Level Shifting         CNVShift        .... on
   Level shift para.    LevelShift      ....    0.2500
   Turn off err/grad.   ShiftErr        ....    0.0010
 Zerner damping         CNVZerner       .... off
 Static damping         CNVDamp         .... on
   Fraction old density DampFac         ....    0.7000
   Max. Damping (<1)    DampMax         ....    0.9800
   Min. Damping (>=0)   DampMin         ....    0.0000
   Turn off err/grad.   DampErr         ....    0.1000
 Fernandez-Rico         CNVRico         .... off

SCF Procedure:
 Maximum # iterations   MaxIter         ....   125
 SCF integral mode      SCFMode         .... Direct
   Integral package                     .... SHARK and LIBINT hybrid scheme
 Reset frequency        DirectResetFreq ....    20
 Integral Threshold     Thresh          ....  2.500e-11 Eh
 Primitive CutOff       TCut            ....  2.500e-12 Eh

Convergence Tolerance:
 Convergence Check Mode ConvCheckMode   .... Total+1el-Energy
 Convergence forced     ConvForced      .... 0
 Energy Change          TolE            ....  1.000e-08 Eh
 1-El. energy change                    ....  1.000e-05 Eh
 DIIS Error             TolErr          ....  5.000e-07


Diagonalization of the overlap matrix:
Smallest eigenvalue                        ... 9.138e-06
Time for diagonalization                   ...    0.094 sec
Threshold for overlap eigenvalues          ... 1.000e-08
Number of eigenvalues below threshold      ... 0
Time for construction of square roots      ...    0.020 sec
Total time needed                          ...    0.116 sec

Time for model grid setup =    0.308 sec

------------------------------
INITIAL GUESS: MODEL POTENTIAL
------------------------------
Loading Hartree-Fock densities                     ... done
Calculating cut-offs                               ... done
Initializing the effective Hamiltonian             ... done
Setting up the integral package (SHARK)            ... done
Starting the Coulomb interaction                   ... done (   0.5 sec)
Reading the grid                                   ... done
Mapping shells                                     ... done
Starting the XC term evaluation                    ... done (   0.4 sec)
  promolecular density results
     # of electrons  =    112.000440794
     EX              =   -132.808497026
     EC              =     -4.115427337
     EX+EC           =   -136.923924363
Transforming the Hamiltonian                       ... done (   0.0 sec)
Diagonalizing the Hamiltonian                      ... done (   0.0 sec)
Back transforming the eigenvectors                 ... done (   0.0 sec)
Now organizing SCF variables                       ... done
                      ------------------
                      INITIAL GUESS DONE (   1.2 sec)
                      ------------------
-------------------
DFT GRID GENERATION
-------------------

General Integration Accuracy     IntAcc      ... 4.388
Radial Grid Type                 RadialGrid  ... OptM3 with GC (2021)
Angular Grid (max. ang.)         AngularGrid ... 4 (Lebedev-302)
Angular grid pruning method      GridPruning ... 4 (adaptive)
Weight generation scheme         WeightScheme... Becke
Basis function cutoff            BFCut       ... 1.0000e-11
Integration weight cutoff        WCut        ... 1.0000e-14
Angular grids for H and He will be reduced by one unit
Partially contracted basis set               ... off
Rotationally invariant grid construction     ... off

Total number of grid points                  ...   115590
Total number of batches                      ...     1818
Average number of points per batch           ...       63
Average number of grid points per atom       ...     4816
Time for grid setup =    0.893 sec

--------------
SCF ITERATIONS
--------------
ITER       Energy         Delta-E        Max-DP      RMS-DP      [F,P]     Damp
               ***  Starting incremental Fock matrix formation  ***
  0  -2156.5784834750   0.000000000000 0.10750212  0.00082533  0.2451071 0.7000
  1  -2156.7123983433  -0.133914868304 0.09606958  0.00067866  0.0803943 0.7000
                               ***Turning on DIIS***
  2  -2156.7613159025  -0.048917559221 0.15193742  0.00102877  0.0445059 0.0000
  3  -2156.8422624145  -0.080946511979 0.07416544  0.00052650  0.0907258 0.0000
  4  -2156.8646713375  -0.022408923032 0.02644798  0.00020084  0.0110928 0.0000
  5  -2156.8658080489  -0.001136711361 0.00999963  0.00008113  0.0113512 0.0000
  6  -2156.8660008119  -0.000192763039 0.00308784  0.00002784  0.0056549 0.0000
  7  -2156.8660305011  -0.000029689184 0.00194921  0.00001055  0.0027349 0.0000
  8  -2156.8660397007  -0.000009199623 0.00313073  0.00001383  0.0003869 0.0000
  9  -2156.8660414969  -0.000001796174 0.00047370  0.00000446  0.0003977 0.0000
 10  -2156.8660426812  -0.000001184316 0.00020391  0.00000196  0.0001610 0.0000
 11  -2156.8660428501  -0.000000168889 0.00017159  0.00000133  0.0000625 0.0000
 12  -2156.8660428684  -0.000000018309 0.00007368  0.00000056  0.0000304 0.0000
 13  -2156.8660428759  -0.000000007513 0.00003994  0.00000038  0.0000241 0.0000
 14  -2156.8660428886  -0.000000012627 0.00001996  0.00000019  0.0000169 0.0000
 15  -2156.8660428864   0.000000002153 0.00002649  0.00000027  0.0000100 0.0000
 16  -2156.8660428803   0.000000006083 0.00004009  0.00000041  0.0000020 0.0000
 17  -2156.8660428802   0.000000000144 0.00001611  0.00000017  0.0000010 0.0000
                            ***DIIS convergence achieved***

               *****************************************************
               *                     SUCCESS                       *
               *           SCF CONVERGED AFTER  18 CYCLES          *
               *****************************************************


----------------
TOTAL SCF ENERGY
----------------

Total Energy       :        -2156.86604288 Eh          -58691.30884 eV

Components:
Nuclear Repulsion  :          841.94049925 Eh           22910.36573 eV
Electronic Energy  :        -2998.80654213 Eh          -81601.67456 eV
One Electron Energy:        -4647.81013107 Eh         -126473.34345 eV
Two Electron Energy:         1649.00358895 Eh           44871.66889 eV

Virial components:
Potential Energy   :        -4308.99270728 Eh         -117253.65263 eV
Kinetic Energy     :         2152.12666440 Eh           58562.34379 eV
Virial Ratio       :            2.00220218


DFT components:
N(Alpha)           :       55.999970636146 electrons
N(Beta)            :       54.999986878202 electrons
N(Total)           :      110.999957514348 electrons
E(X)               :     -133.973959192271 Eh       
E(C)               :       -4.092105578482 Eh       
E(XC)              :     -138.066064770753 Eh       
DFET-embed. en.    :        0.000000000000 Eh       

---------------
SCF CONVERGENCE
---------------

  Last Energy change         ...    3.5757e-09  Tolerance :   1.0000e-08
  Last MAX-Density change    ...    2.0612e-05  Tolerance :   1.0000e-07
  Last RMS-Density change    ...    1.7295e-07  Tolerance :   5.0000e-09
  Last DIIS Error            ...    4.1744e-07  Tolerance :   5.0000e-07

             **** THE GBW FILE WAS UPDATED (2_protonated.gbw) ****
             **** DENSITY 2_protonated.scfp WAS UPDATED ****
             **** ENERGY FILE WAS UPDATED (2_protonated.en.tmp) ****
----------------------
UHF SPIN CONTAMINATION
----------------------

Warning: in a DFT calculation there is little theoretical justification to 
         calculate <S**2> as in Hartree-Fock theory. We will do it anyways
         but you should keep in mind that the values have only limited relevance

Expectation value of <S**2>     :     0.752417
Ideal value S*(S+1) for S=0.5   :     0.750000
Deviation                       :     0.002417

             **** THE GBW FILE WAS UPDATED (2_protonated.gbw) ****
             **** DENSITY 2_protonated.scfp WAS UPDATED ****
----------------
ORBITAL ENERGIES
----------------
                 SPIN UP ORBITALS
  NO   OCC          E(Eh)            E(eV) 
   0   1.0000    -321.563656     -8750.1919 
   1   1.0000     -38.324083     -1042.8513 
   2   1.0000     -33.615638      -914.7280 
   3   1.0000     -33.615618      -914.7275 
   4   1.0000     -33.615602      -914.7270 
   5   1.0000     -18.912984      -514.6485 
   6   1.0000     -18.900298      -514.3032 
   7   1.0000     -14.273881      -388.4120 
   8   1.0000     -10.110063      -275.1088 
   9   1.0000     -10.073948      -274.1261 
  10   1.0000     -10.073276      -274.1078 
  11   1.0000     -10.049127      -273.4506 
  12   1.0000     -10.034031      -273.0399 
  13   1.0000     -10.021550      -272.7002 
  14   1.0000     -10.018067      -272.6055 
  15   1.0000     -10.014872      -272.5185 
  16   1.0000      -4.156853      -113.1137 
  17   1.0000      -2.693549       -73.2952 
  18   1.0000      -2.692570       -73.2685 
  19   1.0000      -2.692492       -73.2664 
  20   1.0000      -1.113763       -30.3070 
  21   1.0000      -1.090372       -29.6705 
  22   1.0000      -1.086229       -29.5578 
  23   1.0000      -0.916434       -24.9374 
  24   1.0000      -0.870500       -23.6875 
  25   1.0000      -0.811188       -22.0735 
  26   1.0000      -0.800623       -21.7861 
  27   1.0000      -0.743859       -20.2414 
  28   1.0000      -0.709885       -19.3169 
  29   1.0000      -0.702261       -19.1095 
  30   1.0000      -0.692856       -18.8536 
  31   1.0000      -0.677237       -18.4286 
  32   1.0000      -0.628838       -17.1115 
  33   1.0000      -0.617578       -16.8052 
  34   1.0000      -0.603112       -16.4115 
  35   1.0000      -0.564711       -15.3666 
  36   1.0000      -0.558963       -15.2102 
  37   1.0000      -0.533942       -14.5293 
  38   1.0000      -0.520059       -14.1515 
  39   1.0000      -0.518206       -14.1011 
  40   1.0000      -0.509337       -13.8598 
  41   1.0000      -0.492124       -13.3914 
  42   1.0000      -0.478331       -13.0160 
  43   1.0000      -0.462868       -12.5953 
  44   1.0000      -0.448710       -12.2100 
  45   1.0000      -0.444115       -12.0850 
  46   1.0000      -0.428709       -11.6658 
  47   1.0000      -0.421117       -11.4592 
  48   1.0000      -0.351029        -9.5520 
  49   1.0000      -0.314817        -8.5666 
  50   1.0000      -0.273425        -7.4403 
  51   1.0000      -0.272699        -7.4205 
  52   1.0000      -0.272640        -7.4189 
  53   1.0000      -0.272219        -7.4075 
  54   1.0000      -0.272214        -7.4073 
  55   1.0000      -0.256416        -6.9774 
  56   0.0000      -0.186212        -5.0671 
  57   0.0000      -0.175110        -4.7650 
  58   0.0000      -0.158609        -4.3160 
  59   0.0000      -0.134224        -3.6524 
  60   0.0000      -0.120832        -3.2880 
  61   0.0000      -0.114105        -3.1050 
  62   0.0000      -0.097995        -2.6666 
  63   0.0000      -0.093783        -2.5520 
  64   0.0000      -0.087930        -2.3927 
  65   0.0000      -0.075525        -2.0552 
  66   0.0000      -0.069016        -1.8780 
  67   0.0000      -0.061209        -1.6656 
  68   0.0000      -0.051740        -1.4079 
  69   0.0000      -0.046110        -1.2547 
  70   0.0000      -0.042281        -1.1505 
  71   0.0000      -0.037714        -1.0262 
  72   0.0000      -0.027984        -0.7615 
  73   0.0000      -0.021765        -0.5923 
  74   0.0000      -0.013591        -0.3698 
  75   0.0000      -0.003959        -0.1077 
  76   0.0000       0.010648         0.2898 
  77   0.0000       0.013243         0.3604 
  78   0.0000       0.021138         0.5752 
  79   0.0000       0.021737         0.5915 
  80   0.0000       0.040525         1.1027 
  81   0.0000       0.052594         1.4312 
  82   0.0000       0.057483         1.5642 
  83   0.0000       0.063304         1.7226 
  84   0.0000       0.069938         1.9031 
  85   0.0000       0.075702         2.0600 
  86   0.0000       0.077158         2.0996 
  87   0.0000       0.082326         2.2402 
  88   0.0000       0.083234         2.2649 
  89   0.0000       0.096262         2.6194 
  90   0.0000       0.098204         2.6723 
  91   0.0000       0.103939         2.8283 
  92   0.0000       0.114272         3.1095 
  93   0.0000       0.116851         3.1797 
  94   0.0000       0.130711         3.5568 
  95   0.0000       0.131775         3.5858 
  96   0.0000       0.138933         3.7806 
  97   0.0000       0.147465         4.0127 
  98   0.0000       0.157903         4.2968 
  99   0.0000       0.161879         4.4050 
 100   0.0000       0.178488         4.8569 
 101   0.0000       0.184557         5.0221 
 102   0.0000       0.193273         5.2592 
 103   0.0000       0.199435         5.4269 
 104   0.0000       0.210864         5.7379 
 105   0.0000       0.213721         5.8156 
 106   0.0000       0.225835         6.1453 
 107   0.0000       0.230386         6.2691 
 108   0.0000       0.232106         6.3159 
 109   0.0000       0.237505         6.4629 
 110   0.0000       0.246901         6.7185 
 111   0.0000       0.248347         6.7579 
 112   0.0000       0.252619         6.8741 
 113   0.0000       0.261232         7.1085 
 114   0.0000       0.263539         7.1713 
 115   0.0000       0.274613         7.4726 
 116   0.0000       0.279330         7.6010 
 117   0.0000       0.286876         7.8063 
 118   0.0000       0.294459         8.0126 
 119   0.0000       0.301439         8.2026 
 120   0.0000       0.304939         8.2978 
 121   0.0000       0.321909         8.7596 
 122   0.0000       0.334388         9.0992 
 123   0.0000       0.339951         9.2505 
 124   0.0000       0.353829         9.6282 
 125   0.0000       0.361300         9.8315 
 126   0.0000       0.379755        10.3337 
 127   0.0000       0.389270        10.5926 
 128   0.0000       0.404289        11.0013 
 129   0.0000       0.413558        11.2535 
 130   0.0000       0.424545        11.5525 
 131   0.0000       0.428695        11.6654 
 132   0.0000       0.445284        12.1168 
 133   0.0000       0.453688        12.3455 
 134   0.0000       0.466482        12.6936 
 135   0.0000       0.468870        12.7586 
 136   0.0000       0.482697        13.1349 
 137   0.0000       0.508698        13.8424 
 138   0.0000       0.516371        14.0512 
 139   0.0000       0.527991        14.3674 
 140   0.0000       0.533152        14.5078 
 141   0.0000       0.540041        14.6953 
 142   0.0000       0.575486        15.6598 
 143   0.0000       0.579200        15.7608 
 144   0.0000       0.589973        16.0540 
 145   0.0000       0.600344        16.3362 
 146   0.0000       0.614678        16.7262 
 147   0.0000       0.622844        16.9485 
 148   0.0000       0.643611        17.5135 
 149   0.0000       0.645314        17.5599 
 150   0.0000       0.661182        17.9917 
 151   0.0000       0.670373        18.2418 
 152   0.0000       0.676800        18.4167 
 153   0.0000       0.692213        18.8361 
 154   0.0000       0.698715        19.0130 
 155   0.0000       0.705427        19.1956 
 156   0.0000       0.728282        19.8176 
 157   0.0000       0.743383        20.2285 
 158   0.0000       0.758177        20.6311 
 159   0.0000       0.758312        20.6347 
 160   0.0000       0.761773        20.7289 
 161   0.0000       0.768088        20.9007 
 162   0.0000       0.787804        21.4372 
 163   0.0000       0.788905        21.4672 
 164   0.0000       0.806616        21.9491 
 165   0.0000       0.812992        22.1226 
 166   0.0000       0.841538        22.8994 
 167   0.0000       0.856287        23.3008 
 168   0.0000       0.874656        23.8006 
 169   0.0000       0.878796        23.9133 
 170   0.0000       0.894200        24.3324 
 171   0.0000       0.911674        24.8079 
 172   0.0000       0.918015        24.9805 
 173   0.0000       0.931357        25.3435 
 174   0.0000       0.948606        25.8129 
 175   0.0000       0.957198        26.0467 
 176   0.0000       0.963884        26.2286 
 177   0.0000       0.985378        26.8135 
 178   0.0000       1.006056        27.3762 
 179   0.0000       1.014370        27.6024 
 180   0.0000       1.024522        27.8787 
 181   0.0000       1.044449        28.4209 
 182   0.0000       1.051186        28.6042 
 183   0.0000       1.078554        29.3490 
 184   0.0000       1.094620        29.7861 
 185   0.0000       1.100758        29.9532 
 186   0.0000       1.131263        30.7832 
 187   0.0000       1.133595        30.8467 
 188   0.0000       1.145306        31.1654 
 189   0.0000       1.161101        31.5952 
 190   0.0000       1.176042        32.0017 
 191   0.0000       1.178935        32.0805 
 192   0.0000       1.190603        32.3979 
 193   0.0000       1.214917        33.0596 
 194   0.0000       1.252962        34.0948 
 195   0.0000       1.261162        34.3180 
 196   0.0000       1.275928        34.7198 
 197   0.0000       1.300563        35.3901 
 198   0.0000       1.307416        35.5766 
 199   0.0000       1.317250        35.8442 
 200   0.0000       1.343170        36.5495 
 201   0.0000       1.345959        36.6254 
 202   0.0000       1.355411        36.8826 
 203   0.0000       1.370296        37.2877 
 204   0.0000       1.377215        37.4759 
 205   0.0000       1.390104        37.8266 
 206   0.0000       1.424067        38.7508 
 207   0.0000       1.443866        39.2896 
 208   0.0000       1.460315        39.7372 
 209   0.0000       1.461858        39.7792 
 210   0.0000       1.469019        39.9740 
 211   0.0000       1.486154        40.4403 
 212   0.0000       1.494678        40.6723 
 213   0.0000       1.507662        41.0256 
 214   0.0000       1.515311        41.2337 
 215   0.0000       1.527155        41.5560 
 216   0.0000       1.538501        41.8647 
 217   0.0000       1.549935        42.1759 
 218   0.0000       1.559715        42.4420 
 219   0.0000       1.566204        42.6186 
 220   0.0000       1.599262        43.5181 
 221   0.0000       1.618325        44.0369 
 222   0.0000       1.630335        44.3637 
 223   0.0000       1.644719        44.7551 
 224   0.0000       1.658501        45.1301 
 225   0.0000       1.670588        45.4590 
 226   0.0000       1.681377        45.7526 
 227   0.0000       1.695506        46.1371 
 228   0.0000       1.702687        46.3325 
 229   0.0000       1.706317        46.4312 
 230   0.0000       1.736520        47.2531 
 231   0.0000       1.762986        47.9733 
 232   0.0000       1.772817        48.2408 
 233   0.0000       1.775952        48.3261 
 234   0.0000       1.793616        48.8068 
 235   0.0000       1.816498        49.4294 
 236   0.0000       1.838517        50.0286 
 237   0.0000       1.869420        50.8695 
 238   0.0000       1.889882        51.4263 
 239   0.0000       1.897371        51.6301 
 240   0.0000       1.919940        52.2442 
 241   0.0000       1.926789        52.4306 
 242   0.0000       1.936784        52.7026 
 243   0.0000       1.944825        52.9214 
 244   0.0000       1.948374        53.0180 
 245   0.0000       1.961214        53.3673 
 246   0.0000       1.965073        53.4724 
 247   0.0000       1.984774        54.0084 
 248   0.0000       2.003873        54.5282 
 249   0.0000       2.017871        54.9091 
 250   0.0000       2.031902        55.2909 
 251   0.0000       2.044498        55.6336 
 252   0.0000       2.058926        56.0262 
 253   0.0000       2.077313        56.5266 
 254   0.0000       2.092039        56.9273 
 255   0.0000       2.112028        57.4712 
 256   0.0000       2.129551        57.9480 
 257   0.0000       2.144199        58.3466 
 258   0.0000       2.150981        58.5312 
 259   0.0000       2.167663        58.9851 
 260   0.0000       2.207762        60.0763 
 261   0.0000       2.226397        60.5834 
 262   0.0000       2.231969        60.7350 
 263   0.0000       2.252518        61.2941 
 264   0.0000       2.266184        61.6660 
 265   0.0000       2.269867        61.7662 
 266   0.0000       2.285281        62.1857 
 267   0.0000       2.311332        62.8945 
 268   0.0000       2.316832        63.0442 
 269   0.0000       2.332755        63.4775 
 270   0.0000       2.342024        63.7297 
 271   0.0000       2.348801        63.9141 
 272   0.0000       2.359352        64.2012 
 273   0.0000       2.377681        64.7000 
 274   0.0000       2.392089        65.0920 
 275   0.0000       2.408174        65.5298 
 276   0.0000       2.432793        66.1997 
 277   0.0000       2.436786        66.3083 
 278   0.0000       2.446746        66.5793 
 279   0.0000       2.453674        66.7679 
 280   0.0000       2.468392        67.1684 
 281   0.0000       2.484616        67.6098 
 282   0.0000       2.494495        67.8786 
 283   0.0000       2.517695        68.5100 
 284   0.0000       2.536431        69.0198 
 285   0.0000       2.552665        69.4615 
 286   0.0000       2.558419        69.6181 
 287   0.0000       2.574490        70.0554 
 288   0.0000       2.577530        70.1382 
 289   0.0000       2.602120        70.8073 
 290   0.0000       2.617219        71.2181 
 291   0.0000       2.634119        71.6780 
 292   0.0000       2.645932        71.9995 
 293   0.0000       2.661246        72.4162 
 294   0.0000       2.673967        72.7623 
 295   0.0000       2.691521        73.2400 
 296   0.0000       2.699173        73.4482 
 297   0.0000       2.712291        73.8052 
 298   0.0000       2.727084        74.2077 
 299   0.0000       2.735015        74.4235 
 300   0.0000       2.748383        74.7873 
 301   0.0000       2.754339        74.9494 
 302   0.0000       2.778824        75.6156 
 303   0.0000       2.786051        75.8123 
 304   0.0000       2.801060        76.2207 
 305   0.0000       2.816017        76.6277 
 306   0.0000       2.839627        77.2702 
 307   0.0000       2.843500        77.3756 
 308   0.0000       2.854805        77.6832 
 309   0.0000       2.867588        78.0310 
 310   0.0000       2.887504        78.5730 
 311   0.0000       2.897183        78.8364 
 312   0.0000       2.919006        79.4302 
 313   0.0000       2.935408        79.8765 
 314   0.0000       2.957822        80.4864 
 315   0.0000       2.960203        80.5512 
 316   0.0000       2.974969        80.9530 
 317   0.0000       2.979295        81.0707 
 318   0.0000       2.990391        81.3727 
 319   0.0000       3.008641        81.8693 
 320   0.0000       3.021081        82.2078 
 321   0.0000       3.029965        82.4495 
 322   0.0000       3.042231        82.7833 
 323   0.0000       3.059880        83.2636 
 324   0.0000       3.071049        83.5675 
 325   0.0000       3.093696        84.1837 
 326   0.0000       3.096619        84.2633 
 327   0.0000       3.123927        85.0064 
 328   0.0000       3.124892        85.0326 
 329   0.0000       3.148352        85.6710 
 330   0.0000       3.159627        85.9778 
 331   0.0000       3.171406        86.2984 
 332   0.0000       3.194230        86.9194 
 333   0.0000       3.206091        87.2422 
 334   0.0000       3.211686        87.3944 
 335   0.0000       3.235882        88.0528 
 336   0.0000       3.245393        88.3116 
 337   0.0000       3.259439        88.6939 
 338   0.0000       3.267522        88.9138 
 339   0.0000       3.281518        89.2947 
 340   0.0000       3.288962        89.4972 
 341   0.0000       3.303486        89.8924 
 342   0.0000       3.313913        90.1762 
 343   0.0000       3.328876        90.5833 
 344   0.0000       3.371996        91.7567 
 345   0.0000       3.383511        92.0700 
 346   0.0000       3.411837        92.8408 
 347   0.0000       3.439715        93.5994 
 348   0.0000       3.464398        94.2711 
 349   0.0000       3.468285        94.3768 
 350   0.0000       3.470116        94.4267 
 351   0.0000       3.473445        94.5172 
 352   0.0000       3.475075        94.5616 
 353   0.0000       3.487169        94.8907 
 354   0.0000       3.498822        95.2078 
 355   0.0000       3.506738        95.4232 
 356   0.0000       3.527937        96.0000 
 357   0.0000       3.564827        97.0039 
 358   0.0000       3.579363        97.3994 
 359   0.0000       3.595910        97.8497 
 360   0.0000       3.636067        98.9424 
 361   0.0000       3.648884        99.2912 
 362   0.0000       3.666820        99.7792 
 363   0.0000       3.681852       100.1883 
 364   0.0000       3.696753       100.5938 
 365   0.0000       3.726464       101.4022 
 366   0.0000       3.749283       102.0232 
 367   0.0000       3.767340       102.5145 
 368   0.0000       3.798187       103.3539 
 369   0.0000       3.833876       104.3251 
 370   0.0000       3.845263       104.6349 
 371   0.0000       3.856066       104.9289 
 372   0.0000       3.921209       106.7015 
 373   0.0000       3.923242       106.7568 
 374   0.0000       3.937499       107.1448 
 375   0.0000       3.962786       107.8329 
 376   0.0000       3.977146       108.2236 
 377   0.0000       3.996305       108.7450 
 378   0.0000       4.020033       109.3906 
 379   0.0000       4.061584       110.5213 
 380   0.0000       4.075731       110.9063 
 381   0.0000       4.087409       111.2241 
 382   0.0000       4.105462       111.7153 
 383   0.0000       4.123866       112.2161 
 384   0.0000       4.150954       112.9532 
 385   0.0000       4.194140       114.1284 
 386   0.0000       4.226376       115.0055 
 387   0.0000       4.245525       115.5266 
 388   0.0000       4.334402       117.9451 
 389   0.0000       4.353038       118.4522 
 390   0.0000       4.371683       118.9595 
 391   0.0000       4.428772       120.5130 
 392   0.0000       4.434161       120.6597 
 393   0.0000       4.478219       121.8585 
 394   0.0000       4.508447       122.6811 
 395   0.0000       4.514001       122.8322 
 396   0.0000       4.550759       123.8324 
 397   0.0000       4.575828       124.5146 
 398   0.0000       4.591472       124.9403 
 399   0.0000       4.629596       125.9777 
 400   0.0000       4.645123       126.4002 
 401   0.0000       4.656781       126.7175 
 402   0.0000       4.697545       127.8267 
 403   0.0000       4.746228       129.1514 
 404   0.0000       4.773442       129.8920 
 405   0.0000       4.806329       130.7869 
 406   0.0000       4.852218       132.0356 
 407   0.0000       4.877004       132.7100 
 408   0.0000       4.905463       133.4844 
 409   0.0000       4.980403       135.5237 
 410   0.0000       5.031330       136.9094 
 411   0.0000       5.041543       137.1874 
 412   0.0000       5.099135       138.7545 
 413   0.0000       5.111540       139.0921 
 414   0.0000       5.137551       139.7999 
 415   0.0000       5.189844       141.2228 
 416   0.0000       5.204888       141.6322 
 417   0.0000       5.247265       142.7853 
 418   0.0000       5.281910       143.7281 
 419   0.0000       5.351528       145.6225 
 420   0.0000       5.372146       146.1835 
 421   0.0000       5.456078       148.4674 
 422   0.0000       5.478467       149.0767 
 423   0.0000       5.587173       152.0347 
 424   0.0000       5.587222       152.0360 
 425   0.0000       5.587315       152.0386 
 426   0.0000       5.587383       152.0404 
 427   0.0000       5.587399       152.0409 
 428   0.0000       5.587461       152.0425 
 429   0.0000       5.587547       152.0449 
 430   0.0000       5.627673       153.1368 
 431   0.0000       5.657305       153.9431 
 432   0.0000       5.827215       158.5666 
 433   0.0000       5.923637       161.1903 
 434   0.0000       6.054723       164.7574 
 435   0.0000       6.129400       166.7895 
 436   0.0000       6.164552       167.7460 
 437   0.0000       6.181028       168.1943 
 438   0.0000       6.309222       171.6826 
 439   0.0000       6.417585       174.6314 
 440   0.0000       6.512770       177.2215 
 441   0.0000       6.526600       177.5978 
 442   0.0000       6.599497       179.5814 
 443   0.0000       6.737637       183.3404 
 444   0.0000       6.767415       184.1507 
 445   0.0000       6.989969       190.2067 
 446   0.0000       7.124144       193.8578 
 447   0.0000      21.822023       593.8074 
 448   0.0000      21.894411       595.7772 
 449   0.0000      22.120522       601.9300 
 450   0.0000      22.296011       606.7053 
 451   0.0000      22.341377       607.9398 
 452   0.0000      22.469975       611.4391 
 453   0.0000      22.559481       613.8747 
 454   0.0000      22.997598       625.7965 
 455   0.0000      31.387657       854.1016 
 456   0.0000      43.340702      1179.3605 
 457   0.0000      43.547710      1184.9934 

                 SPIN DOWN ORBITALS
  NO   OCC          E(Eh)            E(eV) 
   0   1.0000    -321.562746     -8750.1672 
   1   1.0000     -38.325440     -1042.8882 
   2   1.0000     -33.616509      -914.7517 
   3   1.0000     -33.616425      -914.7494 
   4   1.0000     -33.616422      -914.7493 
   5   1.0000     -18.912794      -514.6433 
   6   1.0000     -18.900152      -514.2993 
   7   1.0000     -14.273881      -388.4120 
   8   1.0000     -10.110063      -275.1088 
   9   1.0000     -10.073942      -274.1259 
  10   1.0000     -10.073247      -274.1070 
  11   1.0000     -10.049127      -273.4506 
  12   1.0000     -10.034030      -273.0398 
  13   1.0000     -10.021548      -272.7002 
  14   1.0000     -10.018064      -272.6054 
  15   1.0000     -10.014869      -272.5184 
  16   1.0000      -4.158403      -113.1559 
  17   1.0000      -2.694119       -73.3107 
  18   1.0000      -2.693736       -73.3003 
  19   1.0000      -2.693685       -73.2989 
  20   1.0000      -1.113532       -30.3007 
  21   1.0000      -1.090371       -29.6705 
  22   1.0000      -1.085949       -29.5502 
  23   1.0000      -0.916407       -24.9367 
  24   1.0000      -0.870476       -23.6869 
  25   1.0000      -0.811153       -22.0726 
  26   1.0000      -0.800552       -21.7841 
  27   1.0000      -0.743816       -20.2403 
  28   1.0000      -0.709859       -19.3162 
  29   1.0000      -0.702249       -19.1092 
  30   1.0000      -0.692810       -18.8523 
  31   1.0000      -0.677060       -18.4237 
  32   1.0000      -0.628682       -17.1073 
  33   1.0000      -0.617494       -16.8029 
  34   1.0000      -0.603005       -16.4086 
  35   1.0000      -0.564633       -15.3644 
  36   1.0000      -0.558892       -15.2082 
  37   1.0000      -0.533897       -14.5281 
  38   1.0000      -0.520025       -14.1506 
  39   1.0000      -0.518179       -14.1004 
  40   1.0000      -0.509259       -13.8576 
  41   1.0000      -0.492009       -13.3883 
  42   1.0000      -0.478112       -13.0101 
  43   1.0000      -0.462772       -12.5927 
  44   1.0000      -0.448558       -12.2059 
  45   1.0000      -0.443866       -12.0782 
  46   1.0000      -0.428571       -11.6620 
  47   1.0000      -0.421066       -11.4578 
  48   1.0000      -0.350993        -9.5510 
  49   1.0000      -0.314722        -8.5640 
  50   1.0000      -0.267965        -7.2917 
  51   1.0000      -0.267334        -7.2745 
  52   1.0000      -0.267309        -7.2738 
  53   1.0000      -0.266776        -7.2593 
  54   1.0000      -0.266765        -7.2590 
  55   0.0000      -0.222702        -6.0600 
  56   0.0000      -0.186208        -5.0670 
  57   0.0000      -0.175089        -4.7644 
  58   0.0000      -0.158578        -4.3151 
  59   0.0000      -0.134192        -3.6516 
  60   0.0000      -0.117333        -3.1928 
  61   0.0000      -0.111013        -3.0208 
  62   0.0000      -0.097626        -2.6565 
  63   0.0000      -0.089585        -2.4377 
  64   0.0000      -0.079908        -2.1744 
  65   0.0000      -0.074663        -2.0317 
  66   0.0000      -0.068514        -1.8643 
  67   0.0000      -0.059696        -1.6244 
  68   0.0000      -0.050656        -1.3784 
  69   0.0000      -0.044073        -1.1993 
  70   0.0000      -0.025581        -0.6961 
  71   0.0000      -0.021547        -0.5863 
  72   0.0000      -0.012860        -0.3499 
  73   0.0000      -0.010639        -0.2895 
  74   0.0000      -0.000071        -0.0019 
  75   0.0000       0.002665         0.0725 
  76   0.0000       0.011240         0.3059 
  77   0.0000       0.021119         0.5747 
  78   0.0000       0.025606         0.6968 
  79   0.0000       0.036386         0.9901 
  80   0.0000       0.041083         1.1179 
  81   0.0000       0.054540         1.4841 
  82   0.0000       0.060440         1.6447 
  83   0.0000       0.070053         1.9062 
  84   0.0000       0.077325         2.1041 
  85   0.0000       0.078951         2.1484 
  86   0.0000       0.087698         2.3864 
  87   0.0000       0.092165         2.5079 
  88   0.0000       0.101261         2.7555 
  89   0.0000       0.107386         2.9221 
  90   0.0000       0.110828         3.0158 
  91   0.0000       0.113146         3.0789 
  92   0.0000       0.117929         3.2090 
  93   0.0000       0.124830         3.3968 
  94   0.0000       0.132784         3.6132 
  95   0.0000       0.135307         3.6819 
  96   0.0000       0.139798         3.8041 
  97   0.0000       0.149416         4.0658 
  98   0.0000       0.163822         4.4578 
  99   0.0000       0.177574         4.8320 
 100   0.0000       0.180320         4.9068 
 101   0.0000       0.185194         5.0394 
 102   0.0000       0.195131         5.3098 
 103   0.0000       0.199910         5.4398 
 104   0.0000       0.212945         5.7945 
 105   0.0000       0.214683         5.8418 
 106   0.0000       0.226035         6.1507 
 107   0.0000       0.231563         6.3012 
 108   0.0000       0.232879         6.3370 
 109   0.0000       0.237872         6.4728 
 110   0.0000       0.247514         6.7352 
 111   0.0000       0.249740         6.7958 
 112   0.0000       0.252881         6.8813 
 113   0.0000       0.261846         7.1252 
 114   0.0000       0.265092         7.2135 
 115   0.0000       0.274728         7.4757 
 116   0.0000       0.279698         7.6110 
 117   0.0000       0.287237         7.8161 
 118   0.0000       0.294872         8.0239 
 119   0.0000       0.302082         8.2201 
 120   0.0000       0.305522         8.3137 
 121   0.0000       0.322240         8.7686 
 122   0.0000       0.335634         9.1331 
 123   0.0000       0.340361         9.2617 
 124   0.0000       0.354413         9.6441 
 125   0.0000       0.361692         9.8421 
 126   0.0000       0.380681        10.3589 
 127   0.0000       0.389861        10.6087 
 128   0.0000       0.405441        11.0326 
 129   0.0000       0.414615        11.2823 
 130   0.0000       0.425234        11.5712 
 131   0.0000       0.429023        11.6743 
 132   0.0000       0.445956        12.1351 
 133   0.0000       0.454150        12.3581 
 134   0.0000       0.466866        12.7041 
 135   0.0000       0.469432        12.7739 
 136   0.0000       0.482956        13.1419 
 137   0.0000       0.510335        13.8869 
 138   0.0000       0.517186        14.0734 
 139   0.0000       0.528374        14.3778 
 140   0.0000       0.534194        14.5361 
 141   0.0000       0.540832        14.7168 
 142   0.0000       0.577098        15.7036 
 143   0.0000       0.580093        15.7851 
 144   0.0000       0.590886        16.0788 
 145   0.0000       0.600541        16.3416 
 146   0.0000       0.615048        16.7363 
 147   0.0000       0.623147        16.9567 
 148   0.0000       0.643653        17.5147 
 149   0.0000       0.645411        17.5625 
 150   0.0000       0.661376        17.9969 
 151   0.0000       0.672678        18.3045 
 152   0.0000       0.677160        18.4265 
 153   0.0000       0.692784        18.8516 
 154   0.0000       0.699523        19.0350 
 155   0.0000       0.707332        19.2475 
 156   0.0000       0.729654        19.8549 
 157   0.0000       0.747785        20.3483 
 158   0.0000       0.761023        20.7085 
 159   0.0000       0.783661        21.3245 
 160   0.0000       0.791576        21.5399 
 161   0.0000       0.796655        21.6781 
 162   0.0000       0.797246        21.6942 
 163   0.0000       0.803541        21.8655 
 164   0.0000       0.821894        22.3649 
 165   0.0000       0.824883        22.4462 
 166   0.0000       0.844256        22.9734 
 167   0.0000       0.857941        23.3458 
 168   0.0000       0.875664        23.8280 
 169   0.0000       0.880649        23.9637 
 170   0.0000       0.894436        24.3388 
 171   0.0000       0.911832        24.8122 
 172   0.0000       0.918808        25.0020 
 173   0.0000       0.931538        25.3484 
 174   0.0000       0.948666        25.8145 
 175   0.0000       0.957366        26.0512 
 176   0.0000       0.964202        26.2373 
 177   0.0000       0.985512        26.8171 
 178   0.0000       1.006137        27.3784 
 179   0.0000       1.014500        27.6059 
 180   0.0000       1.024567        27.8799 
 181   0.0000       1.044582        28.4245 
 182   0.0000       1.051322        28.6079 
 183   0.0000       1.078648        29.3515 
 184   0.0000       1.094665        29.7873 
 185   0.0000       1.100847        29.9556 
 186   0.0000       1.131523        30.7903 
 187   0.0000       1.133717        30.8500 
 188   0.0000       1.145463        31.1696 
 189   0.0000       1.161180        31.5973 
 190   0.0000       1.176124        32.0040 
 191   0.0000       1.179106        32.0851 
 192   0.0000       1.190650        32.3992 
 193   0.0000       1.215128        33.0653 
 194   0.0000       1.253059        34.0975 
 195   0.0000       1.261237        34.3200 
 196   0.0000       1.276016        34.7222 
 197   0.0000       1.300585        35.3907 
 198   0.0000       1.307431        35.5770 
 199   0.0000       1.317329        35.8464 
 200   0.0000       1.343369        36.5549 
 201   0.0000       1.346000        36.6265 
 202   0.0000       1.355450        36.8837 
 203   0.0000       1.370341        37.2889 
 204   0.0000       1.377305        37.4784 
 205   0.0000       1.390145        37.8278 
 206   0.0000       1.424148        38.7530 
 207   0.0000       1.443894        39.2903 
 208   0.0000       1.460420        39.7401 
 209   0.0000       1.462018        39.7835 
 210   0.0000       1.469086        39.9758 
 211   0.0000       1.486223        40.4422 
 212   0.0000       1.494783        40.6751 
 213   0.0000       1.507713        41.0269 
 214   0.0000       1.515525        41.2395 
 215   0.0000       1.527240        41.5583 
 216   0.0000       1.538828        41.8736 
 217   0.0000       1.550009        42.1779 
 218   0.0000       1.559777        42.4437 
 219   0.0000       1.566373        42.6232 
 220   0.0000       1.599469        43.5238 
 221   0.0000       1.618359        44.0378 
 222   0.0000       1.630509        44.3684 
 223   0.0000       1.644854        44.7588 
 224   0.0000       1.658583        45.1323 
 225   0.0000       1.670803        45.4649 
 226   0.0000       1.681669        45.7605 
 227   0.0000       1.695758        46.1439 
 228   0.0000       1.702839        46.3366 
 229   0.0000       1.706687        46.4413 
 230   0.0000       1.736834        47.2617 
 231   0.0000       1.763027        47.9744 
 232   0.0000       1.772949        48.2444 
 233   0.0000       1.776131        48.3310 
 234   0.0000       1.794334        48.8263 
 235   0.0000       1.816567        49.4313 
 236   0.0000       1.839182        50.0467 
 237   0.0000       1.870066        50.8871 
 238   0.0000       1.890680        51.4480 
 239   0.0000       1.909655        51.9644 
 240   0.0000       1.922216        52.3062 
 241   0.0000       1.927308        52.4447 
 242   0.0000       1.937336        52.7176 
 243   0.0000       1.947450        52.9928 
 244   0.0000       1.949246        53.0417 
 245   0.0000       1.964995        53.4702 
 246   0.0000       1.969869        53.6029 
 247   0.0000       1.985278        54.0222 
 248   0.0000       2.004098        54.5343 
 249   0.0000       2.019642        54.9573 
 250   0.0000       2.032049        55.2949 
 251   0.0000       2.044599        55.6364 
 252   0.0000       2.062166        56.1144 
 253   0.0000       2.079769        56.5934 
 254   0.0000       2.093925        56.9786 
 255   0.0000       2.112247        57.4772 
 256   0.0000       2.129715        57.9525 
 257   0.0000       2.145043        58.3696 
 258   0.0000       2.151084        58.5340 
 259   0.0000       2.168942        59.0199 
 260   0.0000       2.208788        60.1042 
 261   0.0000       2.226504        60.5862 
 262   0.0000       2.232229        60.7420 
 263   0.0000       2.253777        61.3284 
 264   0.0000       2.266504        61.6747 
 265   0.0000       2.270069        61.7717 
 266   0.0000       2.285419        62.1894 
 267   0.0000       2.311609        62.9021 
[...]
      1      -0.004061  -0.069086   0.025073   0.000004   0.000022  -0.000822
      2       0.001715   0.021610  -0.008797   0.000022   0.000017   0.000439
      3       0.014982   0.001474  -0.000160  -0.000219  -0.000034   0.000318
      4       0.025755   0.002415  -0.002293  -0.000172  -0.000141   0.000041
      5      -0.011920  -0.001119   0.000585  -0.000299  -0.000027  -0.000143
      6       0.001494  -0.003075   0.001506   0.000124   0.000043   0.000178
      7      -0.001602   0.002175  -0.001578   0.000001  -0.000022   0.002009
      8      -0.000210   0.000672  -0.000246  -0.000034  -0.000007  -0.000273
      9      -0.001010  -0.011482  -0.040469  -0.000028   0.000062   0.000137
     10       0.002424   0.024778   0.071715   0.000025   0.000087   0.000058
     11       0.000000   0.000309   0.003295  -0.000035  -0.000037  -0.000067
     12       0.000513  -0.000565  -0.002422  -0.000184  -0.000192  -0.000181
     13      -0.000639   0.000079  -0.002084   0.000234  -0.000065   0.000077
     14      -0.000179   0.000157   0.001215  -0.000042  -0.000000   0.000042
     15      -0.004794   0.000428  -0.000152   0.000240   0.000017  -0.000872
     16       0.003858   0.000235  -0.000227  -0.000153  -0.000012  -0.000348
     17       0.000837  -0.000199   0.000069  -0.000066   0.000005   0.000331
     18      -0.000936   0.000363  -0.000215  -0.000052  -0.000011   0.024527
     19       0.000018  -0.000294   0.000291   0.000097   0.000047   0.055914
     20       0.000351  -0.000094   0.000048   0.000007   0.000003  -0.012883
     21      -0.056549   0.005668   0.000542  -0.000372  -0.000072   0.000417
     22      -0.004417   0.000255   0.000013   0.000095   0.000003  -0.000226
     23       0.016606  -0.001637  -0.000156   0.000102   0.000022  -0.000080
     24      -0.000178  -0.000060  -0.000238   0.000051  -0.000043   0.000072
     25       0.000758   0.000634   0.000785  -0.000387   0.000161   0.000021
     26       0.000246   0.000012   0.000361   0.000167  -0.000257  -0.000064
     27      -0.001660   0.000315  -0.000005   0.000834  -0.000266  -0.000002
     28      -0.001342   0.000213  -0.000130   0.001487  -0.001330   0.000008
     29       0.001034  -0.000128   0.000101  -0.000651   0.000891   0.000019
     30       0.002472   0.000077   0.000507   0.034949   0.002873  -0.000167
     31      -0.000364  -0.000012  -0.000021   0.045835  -0.035742  -0.000038
     32       0.000008   0.000018  -0.000024   0.015805   0.072401  -0.000089
     33      -0.040057  -0.000868  -0.007842  -0.054835  -0.016897   0.002113
     34       0.001772   0.000237  -0.000461   0.012506  -0.007035   0.000434
     35      -0.004253  -0.000193  -0.000673   0.003272   0.013405   0.000564
     36       0.002359  -0.000006   0.000400  -0.158404  -0.229960   0.000323
     37      -0.000634  -0.000023   0.000017   0.023859   0.010841  -0.000013
     38       0.005973  -0.000254   0.000918  -0.569037  -0.771327   0.001265
     39       0.000997  -0.000075   0.000357  -0.270002   0.206990   0.000217
     40       0.004754  -0.000182   0.000151  -0.669283   0.493701   0.000594
     41      -0.003041   0.000045  -0.000218   0.350087  -0.240918  -0.000189
     42       0.028278   0.417881  -0.151541  -0.000093  -0.000070   0.004347
     43       0.051266   0.795815  -0.281551  -0.000083  -0.000027   0.003835
     44      -0.016812  -0.252586   0.090469   0.000038  -0.000043  -0.001849
     45      -0.147232  -0.013679   0.008240  -0.000374   0.000579  -0.000245
     46      -0.313039  -0.029275   0.019063  -0.001390   0.001131  -0.000818
     47       0.135332   0.012666  -0.007773   0.001260  -0.000575   0.000432
     48       0.018731   0.159131   0.453889   0.000142   0.000128  -0.000853
     49      -0.033779  -0.292900  -0.820813  -0.000225  -0.000295   0.000580
     50      -0.001457  -0.011871  -0.035911   0.000016  -0.000019   0.000235
     51       0.002867   0.008056  -0.002734  -0.000461  -0.000274  -0.373791
     52      -0.007925   0.003660  -0.002117  -0.001413  -0.000695  -0.903294
     53      -0.000302  -0.002608   0.000933   0.000221   0.000099   0.200870
     54       0.882558  -0.087433  -0.007848   0.004815   0.001045  -0.006321
     55       0.063169  -0.006419  -0.000639   0.000280   0.000038   0.000558
     56      -0.258489   0.025678   0.002317  -0.001435  -0.000324   0.001682
     57      -0.001583  -0.000802   0.001686   0.000777  -0.000638  -0.000252
     58      -0.001685  -0.002814   0.000652   0.002544  -0.001009  -0.000306
     59       0.002202   0.002219  -0.001453  -0.001751  -0.000064   0.000267
     60       0.002344   0.002514   0.005043   0.000140   0.000788  -0.000165
     61      -0.007670  -0.005301  -0.008544  -0.001065  -0.001649   0.000160
     62      -0.003235  -0.003119  -0.005285  -0.001351  -0.000945   0.000090
     63       0.001369   0.000186   0.000877  -0.001622   0.001191   0.000144
     64       0.012542  -0.001481   0.002268  -0.014390   0.015110  -0.000035
     65      -0.009904   0.001597  -0.000925   0.005867  -0.011194   0.000065
     66       0.018502  -0.003355   0.001218  -0.008720   0.003949  -0.000571
     67       0.002784  -0.000597   0.000153  -0.003486   0.001309  -0.000212
     68      -0.003529   0.000690   0.000301   0.002718  -0.001512  -0.000095
     69       0.000604  -0.000055  -0.000002   0.000004   0.000001  -0.000041
     70       0.000058  -0.000008  -0.000002  -0.000003  -0.000001   0.000043
     71      -0.000170   0.000016   0.000001  -0.000001  -0.000001   0.000004


-----------
IR SPECTRUM
-----------

 Mode   freq       eps      Int      T**2         TX        TY        TZ
       cm**-1   L/(mol*cm) km/mol    a.u.
----------------------------------------------------------------------------
  6:      6.37   0.000378    1.91  0.018543  ( 0.058141 -0.070088 -0.101243)
  7:     36.49   0.000586    2.96  0.005012  ( 0.049094 -0.050566 -0.006665)
  8:     58.85   0.001875    9.48  0.009942  (-0.031668  0.061830 -0.071524)
  9:     73.68   0.003884   19.63  0.016449  (-0.120712  0.005956  0.042916)
 10:     92.05   0.000114    0.58  0.000388  (-0.017145  0.009305 -0.002657)
 11:    143.82   0.001904    9.62  0.004131  ( 0.060838  0.017504  0.011093)
 12:    174.30   0.000249    1.26  0.000446  ( 0.019615  0.001607  0.007674)
 13:    255.21   0.009804   49.55  0.011988  (-0.081619 -0.021662 -0.069695)
 14:    277.63   0.000038    0.19  0.000043  (-0.002449 -0.001574 -0.005858)
 15:    287.50   0.012591   63.63  0.013667  (-0.003115 -0.003745 -0.116804)
 16:    300.92   0.002725   13.77  0.002826  ( 0.040057  0.022340  0.026883)
 17:    321.98   0.000119    0.60  0.000115  ( 0.007703 -0.001783  0.007240)
 18:    361.61   0.006520   32.95  0.005627  (-0.055915 -0.016743 -0.047117)
 19:    410.44   0.000265    1.34  0.000202  (-0.006527 -0.009421 -0.008379)
 20:    446.29   0.000410    2.07  0.000286  ( 0.008296  0.002857  0.014470)
 21:    464.47   0.000475    2.40  0.000319  ( 0.016745  0.005883  0.001968)
 22:    497.26   0.003308   16.71  0.002076  (-0.012478 -0.008894 -0.042905)
 23:    523.50   0.000686    3.46  0.000409  (-0.018875  0.006779 -0.002542)
 24:    577.87   0.000138    0.70  0.000074  (-0.004033 -0.005141  0.005633)
 25:    634.63   0.001505    7.60  0.000740  (-0.000098 -0.006229 -0.026479)
 26:    701.64   0.001182    5.98  0.000526  ( 0.020796  0.009022 -0.003472)
 27:    714.54   0.000265    1.34  0.000116  ( 0.007607  0.007556  0.000849)
 28:    766.05   0.003141   15.87  0.001279  (-0.025273  0.015124  0.020298)
 29:    783.62   0.004776   24.13  0.001902  ( 0.010525 -0.000717  0.042314)
 30:    814.09   0.000402    2.03  0.000154  (-0.012215 -0.001772 -0.001372)
 31:    843.09   0.008733   44.13  0.003232  ( 0.044434  0.005311  0.035069)
 32:    853.19   0.004455   22.51  0.001630  ( 0.036169  0.004141  0.017440)
 33:    882.93   0.000490    2.47  0.000173  ( 0.009020  0.005023  0.008152)
 34:    902.48   0.002207   11.15  0.000763  ( 0.023139  0.008803 -0.012252)
 35:    954.85   0.003174   16.04  0.001037  (-0.007772 -0.030294 -0.007693)
 36:    963.63   0.000925    4.68  0.000300  (-0.009874  0.005710  0.013022)
 37:   1049.92   0.014318   72.36  0.004256  ( 0.063077 -0.000737  0.016630)
 38:   1060.82   0.000149    0.75  0.000044  (-0.000690 -0.002612 -0.006050)
 39:   1100.14   0.011360   57.41  0.003222  ( 0.052390  0.006704 -0.020799)
 40:   1148.51   0.003211   16.23  0.000873  (-0.027073  0.005190  0.010615)
 41:   1156.52   0.009445   47.73  0.002549  ( 0.040552 -0.029381 -0.006399)
 42:   1173.50   0.007621   38.52  0.002027  (-0.033236  0.030357  0.000724)
 43:   1216.47   0.001814    9.17  0.000465  ( 0.017824 -0.007052  0.009890)
 44:   1247.23   0.004281   21.64  0.001071  ( 0.020490  0.024742 -0.006259)
 45:   1277.87   0.007163   36.20  0.001749  (-0.040934  0.004718  0.007171)
 46:   1297.80   0.043356  219.10  0.010425  (-0.090485  0.046331  0.009544)
 47:   1300.33   0.001283    6.48  0.000308  (-0.008527  0.015114 -0.002600)
 48:   1320.71   0.018868   95.35  0.004458  ( 0.060335 -0.021893 -0.018401)
 49:   1344.12   0.001132    5.72  0.000263  ( 0.016077 -0.002098 -0.000001)
 50:   1381.37   0.001210    6.12  0.000273  (-0.006847  0.014813  0.002666)
 51:   1427.26   0.002960   14.96  0.000647  ( 0.003205 -0.005790 -0.024564)
 52:   1434.18   0.015052   76.07  0.003275  ( 0.024072  0.036198  0.037220)
 53:   1444.16   0.004224   21.35  0.000913  ( 0.010488 -0.027944  0.004681)
 54:   1450.97   0.008379   42.34  0.001802  (-0.017836 -0.030111 -0.024027)
 55:   1505.27   0.042690  215.74  0.008850  ( 0.083441 -0.041224 -0.013732)
 56:   1583.53   0.002886   14.58  0.000569  (-0.000399 -0.003222 -0.023626)
 57:   1590.77   0.015680   79.24  0.003076  (-0.035434  0.042337 -0.005285)
 58:   1597.17   0.000983    4.97  0.000192  ( 0.005437 -0.010070 -0.007817)
 59:   1609.64   0.007321   37.00  0.001419  ( 0.028681  0.019158  0.015159)
 60:   2964.51   0.143485  725.11  0.015104  (-0.117069 -0.021319 -0.030734)
 61:   2984.54   0.007808   39.46  0.000816  (-0.027213 -0.007783  0.003910)
 62:   3020.38   0.000273    1.38  0.000028  ( 0.003334  0.003957 -0.001187)
 63:   3041.25   0.000374    1.89  0.000038  ( 0.004409 -0.003721  0.002248)
 64:   3080.01   0.002737   13.83  0.000277  (-0.015642  0.000918  0.005638)
 65:   3082.59   0.035815  180.99  0.003626  (-0.056094  0.015878  0.015068)
 66:   3083.83   0.280144  1415.73  0.028349  ( 0.161915 -0.025494 -0.038500)
 67:   3098.50   0.006927   35.01  0.000698  (-0.025496  0.002841  0.006289)
 68:   3119.56   0.000291    1.47  0.000029  (-0.004277  0.003286  0.000261)
 69:   3361.71   0.017454   88.21  0.001620  (-0.028519 -0.024632 -0.014149)
 70:   3422.86   0.015194   76.78  0.001385  (-0.004109  0.014460 -0.034047)
 71:   3648.73   0.025397  128.34  0.002172  (-0.043255 -0.012756  0.011763)

* The epsilon (eps) is given for a Dirac delta lineshape.
** The dipole moment derivative (T) already includes vibrational overlap.

The first frequency considered to be a vibration is 6
The total number of vibrations considered is 66


--------------------------
THERMOCHEMISTRY AT 298.15K
--------------------------

Temperature         ... 298.15 K
Pressure            ... 1.00 atm
Total Mass          ... 217.74 AMU

Throughout the following assumptions are being made:
  (1) The electronic state is orbitally nondegenerate
      but the spin degeneracy is treated
  (2) There are no thermally accessible electronically excited states
  (3) Hindered rotations indicated by low frequency modes are not
      treated as such but are treated as vibrations and this may
      cause some error
  (4) All equations used are the standard statistical mechanics
      equations for an ideal gas
  (5) All vibrations are strictly harmonic

freq.       6.37  E(vib)   ...       0.58 
freq.      36.49  E(vib)   ...       0.54 
freq.      58.85  E(vib)   ...       0.51 
freq.      73.68  E(vib)   ...       0.49 
freq.      92.05  E(vib)   ...       0.47 
freq.     143.82  E(vib)   ...       0.41 
freq.     174.30  E(vib)   ...       0.38 
freq.     255.21  E(vib)   ...       0.30 
freq.     277.63  E(vib)   ...       0.28 
freq.     287.50  E(vib)   ...       0.27 
freq.     300.92  E(vib)   ...       0.26 
freq.     321.98  E(vib)   ...       0.25 
freq.     361.61  E(vib)   ...       0.22 
freq.     410.44  E(vib)   ...       0.19 
freq.     446.29  E(vib)   ...       0.17 
freq.     464.47  E(vib)   ...       0.16 
freq.     497.26  E(vib)   ...       0.14 
freq.     523.50  E(vib)   ...       0.13 
freq.     577.87  E(vib)   ...       0.11 
freq.     634.63  E(vib)   ...       0.09 
freq.     701.64  E(vib)   ...       0.07 
freq.     714.54  E(vib)   ...       0.07 
freq.     766.05  E(vib)   ...       0.06 
freq.     783.62  E(vib)   ...       0.05 
freq.     814.09  E(vib)   ...       0.05 
freq.     843.09  E(vib)   ...       0.04 
freq.     853.19  E(vib)   ...       0.04 
freq.     882.93  E(vib)   ...       0.04 
freq.     902.48  E(vib)   ...       0.03 
freq.     954.85  E(vib)   ...       0.03 
freq.     963.63  E(vib)   ...       0.03 
freq.    1049.92  E(vib)   ...       0.02 
freq.    1060.82  E(vib)   ...       0.02 
freq.    1100.14  E(vib)   ...       0.02 
freq.    1148.51  E(vib)   ...       0.01 
freq.    1156.52  E(vib)   ...       0.01 
freq.    1173.50  E(vib)   ...       0.01 
freq.    1216.47  E(vib)   ...       0.01 
freq.    1247.23  E(vib)   ...       0.01 
freq.    1277.87  E(vib)   ...       0.01 
freq.    1297.80  E(vib)   ...       0.01 
freq.    1300.33  E(vib)   ...       0.01 
freq.    1320.71  E(vib)   ...       0.01 
freq.    1344.12  E(vib)   ...       0.01 
freq.    1381.37  E(vib)   ...       0.01 
freq.    1427.26  E(vib)   ...       0.00 
freq.    1434.18  E(vib)   ...       0.00 
freq.    1444.16  E(vib)   ...       0.00 
freq.    1450.97  E(vib)   ...       0.00 
freq.    1505.27  E(vib)   ...       0.00 
freq.    1583.53  E(vib)   ...       0.00 
freq.    1590.77  E(vib)   ...       0.00 
freq.    1597.17  E(vib)   ...       0.00 
freq.    1609.64  E(vib)   ...       0.00 
freq.    2964.51  E(vib)   ...       0.00 
freq.    2984.54  E(vib)   ...       0.00 
freq.    3020.38  E(vib)   ...       0.00 
freq.    3041.25  E(vib)   ...       0.00 
freq.    3080.01  E(vib)   ...       0.00 
freq.    3082.59  E(vib)   ...       0.00 
freq.    3083.83  E(vib)   ...       0.00 
freq.    3098.50  E(vib)   ...       0.00 
freq.    3119.56  E(vib)   ...       0.00 
freq.    3361.71  E(vib)   ...       0.00 
freq.    3422.86  E(vib)   ...       0.00 
freq.    3648.73  E(vib)   ...       0.00 

------------
INNER ENERGY
------------

The inner energy is: U= E(el) + E(ZPE) + E(vib) + E(rot) + E(trans)
    E(el)   - is the total energy from the electronic structure calculation
              = E(kin-el) + E(nuc-el) + E(el-el) + E(nuc-nuc)
    E(ZPE)  - the the zero temperature vibrational energy from the frequency calculation
    E(vib)  - the the finite temperature correction to E(ZPE) due to population
              of excited vibrational states
    E(rot)  - is the rotational thermal energy
    E(trans)- is the translational thermal energy

Summary of contributions to the inner energy U:
Electronic energy                ...  -2156.89477909 Eh
Zero point energy                ...      0.19080041 Eh     119.73 kcal/mol
Thermal vibrational correction   ...      0.01056646 Eh       6.63 kcal/mol
Thermal rotational correction    ...      0.00141627 Eh       0.89 kcal/mol
Thermal translational correction ...      0.00141627 Eh       0.89 kcal/mol
-----------------------------------------------------------------------
Total thermal energy                  -2156.69057968 Eh


Summary of corrections to the electronic energy:
(perhaps to be used in another calculation)
Total thermal correction                  0.01339901 Eh       8.41 kcal/mol
Non-thermal (ZPE) correction              0.19080041 Eh     119.73 kcal/mol
-----------------------------------------------------------------------
Total correction                          0.20419941 Eh     128.14 kcal/mol


--------
ENTHALPY
--------

The enthalpy is H = U + kB*T
                kB is Boltzmann's constant
Total free energy                 ...  -2156.69057968 Eh 
Thermal Enthalpy correction       ...      0.00094421 Eh       0.59 kcal/mol
-----------------------------------------------------------------------
Total Enthalpy                    ...  -2156.68963547 Eh


Note: Only C1 symmetry has been detected, increase convergence thresholds 
      if your molecule has a higher symmetry. Symmetry factor of 1.0 is   
      used for the rotational entropy correction. 
 

Note: Rotational entropy computed according to Herzberg 
Infrared and Raman Spectra, Chapter V,1, Van Nostrand Reinhold, 1945 
Point Group:  C1, Symmetry Number:   1  
Rotational constants in cm-1:     0.059749     0.008943     0.008233 

Vibrational entropy computed according to the QRRHO of S. Grimme
Chem.Eur.J. 2012 18 9955


-------
ENTROPY
-------

The entropy contributions are T*S = T*(S(el)+S(vib)+S(rot)+S(trans))
     S(el)   - electronic entropy
     S(vib)  - vibrational entropy
     S(rot)  - rotational entropy
     S(trans)- translational entropy
The entropies will be listed as multiplied by the temperature to get
units of energy

Electronic entropy                ...      0.00065446 Eh      0.41 kcal/mol
Vibrational entropy               ...      0.01931823 Eh     12.12 kcal/mol
Rotational entropy                ...      0.01533364 Eh      9.62 kcal/mol
Translational entropy             ...      0.01997328 Eh     12.53 kcal/mol
-----------------------------------------------------------------------
Final entropy term                ...      0.05527960 Eh     34.69 kcal/mol

In case the symmetry of your molecule has not been determined correctly
or in case you have a reason to use a different symmetry number we print 
out the resulting rotational entropy values for sn=1,12 :
 --------------------------------------------------------
|  sn= 1 | S(rot)=       0.01533364 Eh      9.62 kcal/mol|
|  sn= 2 | S(rot)=       0.01467918 Eh      9.21 kcal/mol|
|  sn= 3 | S(rot)=       0.01429635 Eh      8.97 kcal/mol|
|  sn= 4 | S(rot)=       0.01402472 Eh      8.80 kcal/mol|
|  sn= 5 | S(rot)=       0.01381404 Eh      8.67 kcal/mol|
|  sn= 6 | S(rot)=       0.01364189 Eh      8.56 kcal/mol|
|  sn= 7 | S(rot)=       0.01349634 Eh      8.47 kcal/mol|
|  sn= 8 | S(rot)=       0.01337027 Eh      8.39 kcal/mol|
|  sn= 9 | S(rot)=       0.01325906 Eh      8.32 kcal/mol|
|  sn=10 | S(rot)=       0.01315958 Eh      8.26 kcal/mol|
|  sn=11 | S(rot)=       0.01306959 Eh      8.20 kcal/mol|
|  sn=12 | S(rot)=       0.01298743 Eh      8.15 kcal/mol|
 --------------------------------------------------------


-------------------
GIBBS FREE ENERGY
-------------------

The Gibbs free energy is G = H - T*S

Total enthalpy                    ...  -2156.68963547 Eh 
Total entropy correction          ...     -0.05527960 Eh    -34.69 kcal/mol
-----------------------------------------------------------------------
Final Gibbs free energy         ...  -2156.74491507 Eh

For completeness - the Gibbs free energy minus the electronic energy
G-E(el)                           ...      0.14986402 Eh     94.04 kcal/mol



Timings for individual modules:

Sum of individual times         ...    16211.220 sec (= 270.187 min)
GTO integral calculation        ...       51.416 sec (=   0.857 min)   0.3 %
SCF iterations                  ...     3512.420 sec (=  58.540 min)  21.7 %
SCF Gradient evaluation         ...     1890.508 sec (=  31.508 min)  11.7 %
Geometry relaxation             ...        1.266 sec (=   0.021 min)   0.0 %
Numerical frequency calculation ...    10755.609 sec (= 179.260 min)  66.3 %
                             ****ORCA TERMINATED NORMALLY****
TOTAL RUN TIME: 0 days 4 hours 27 minutes 58 seconds 731 msec
