
                                 *****************
                                 * O   R   C   A *
                                 *****************

                                            #,                                       
                                            ###                                      
                                            ####                                     
                                            #####                                    
                                            ######                                   
                                           ########,                                 
                                     ,,################,,,,,                         
                               ,,#################################,,                 
                          ,,##########################################,,             
                       ,#########################################, ''#####,          
                    ,#############################################,,   '####,        
                  ,##################################################,,,,####,       
                ,###########''''           ''''###############################       
              ,#####''   ,,,,##########,,,,          '''####'''          '####       
            ,##' ,,,,###########################,,,                        '##       
           ' ,,###''''                  '''############,,,                           
         ,,##''                                '''############,,,,        ,,,,,,###''
      ,#''                                            '''#######################'''  
     '                                                          ''''####''''         
             ,#######,   #######,   ,#######,      ##                                
            ,#'     '#,  ##    ##  ,#'     '#,    #''#        ######   ,####,        
            ##       ##  ##   ,#'  ##            #'  '#       #        #'  '#        
            ##       ##  #######   ##           ,######,      #####,   #    #        
            '#,     ,#'  ##    ##  '#,     ,#' ,#      #,         ##   #,  ,#        
             '#######'   ##     ##  '#######'  #'      '#     #####' # '####'        



                  #######################################################
                  #                        -***-                        #
                  #          Department of theory and spectroscopy      #
                  #    Directorship and core code : Frank Neese         #
                  #        Max Planck Institute fuer Kohlenforschung    #
                  #                Kaiser Wilhelm Platz 1               #
                  #                 D-45470 Muelheim/Ruhr               #
                  #                      Germany                        #
                  #                                                     #
                  #                  All rights reserved                #
                  #                        -***-                        #
                  #######################################################


                         Program Version 5.0.2 -  RELEASE  -


 With contributions from (in alphabetic order):
   Daniel Aravena         : Magnetic Suceptibility
   Michael Atanasov       : Ab Initio Ligand Field Theory (pilot matlab implementation)
   Alexander A. Auer      : GIAO ZORA, VPT2 properties, NMR spectrum
   Ute Becker             : Parallelization
   Giovanni Bistoni       : ED, misc. LED, open-shell LED, HFLD
   Martin Brehm           : Molecular dynamics
   Dmytro Bykov           : SCF Hessian
   Vijay G. Chilkuri      : MRCI spin determinant printing, contributions to CSF-ICE
   Dipayan Datta          : RHF DLPNO-CCSD density
   Achintya Kumar Dutta   : EOM-CC, STEOM-CC
   Dmitry Ganyushin       : Spin-Orbit,Spin-Spin,Magnetic field MRCI
   Miquel Garcia          : C-PCM and meta-GGA Hessian, CC/C-PCM, Gaussian charge scheme
   Yang Guo               : DLPNO-NEVPT2, F12-NEVPT2, CIM, IAO-localization
   Andreas Hansen         : Spin unrestricted coupled pair/coupled cluster methods
   Benjamin Helmich-Paris : MC-RPA, TRAH-SCF, COSX integrals
   Lee Huntington         : MR-EOM, pCC
   Robert Izsak           : Overlap fitted RIJCOSX, COSX-SCS-MP3, EOM
   Marcus Kettner         : VPT2
   Christian Kollmar      : KDIIS, OOCD, Brueckner-CCSD(T), CCSD density, CASPT2, CASPT2-K
   Simone Kossmann        : Meta GGA functionals, TD-DFT gradient, OOMP2, MP2 Hessian
   Martin Krupicka        : Initial AUTO-CI
   Lucas Lang             : DCDCAS
   Marvin Lechner         : AUTO-CI (C++ implementation), FIC-MRCC
   Dagmar Lenk            : GEPOL surface, SMD
   Dimitrios Liakos       : Extrapolation schemes; Compound Job, initial MDCI parallelization
   Dimitrios Manganas     : Further ROCIS development; embedding schemes
   Dimitrios Pantazis     : SARC Basis sets
   Anastasios Papadopoulos: AUTO-CI, single reference methods and gradients
   Taras Petrenko         : DFT Hessian,TD-DFT gradient, ASA, ECA, R-Raman, ABS, FL, XAS/XES, NRVS
   Peter Pinski           : DLPNO-MP2, DLPNO-MP2 Gradient
   Christoph Reimann      : Effective Core Potentials
   Marius Retegan         : Local ZFS, SOC
   Christoph Riplinger    : Optimizer, TS searches, QM/MM, DLPNO-CCSD(T), (RO)-DLPNO pert. Triples
   Tobias Risthaus        : Range-separated hybrids, TD-DFT gradient, RPA, STAB
   Michael Roemelt        : Original ROCIS implementation
   Masaaki Saitow         : Open-shell DLPNO-CCSD energy and density
   Barbara Sandhoefer     : DKH picture change effects
   Avijit Sen             : IP-ROCIS
   Kantharuban Sivalingam : CASSCF convergence, NEVPT2, FIC-MRCI
   Bernardo de Souza      : ESD, SOC TD-DFT
   Georgi Stoychev        : AutoAux, RI-MP2 NMR, DLPNO-MP2 response
   Willem Van den Heuvel  : Paramagnetic NMR
   Boris Wezisla          : Elementary symmetry handling
   Frank Wennmohs         : Technical directorship


 We gratefully acknowledge several colleagues who have allowed us to
 interface, adapt or use parts of their codes:
   Stefan Grimme, W. Hujo, H. Kruse, P. Pracht,  : VdW corrections, initial TS optimization,
                  C. Bannwarth, S. Ehlert          DFT functionals, gCP, sTDA/sTD-DF
   Ed Valeev, F. Pavosevic, A. Kumar             : LibInt (2-el integral package), F12 methods
   Garnet Chan, S. Sharma, J. Yang, R. Olivares  : DMRG
   Ulf Ekstrom                                   : XCFun DFT Library
   Mihaly Kallay                                 : mrcc  (arbitrary order and MRCC methods)
   Jiri Pittner, Ondrej Demel                    : Mk-CCSD
   Frank Weinhold                                : gennbo (NPA and NBO analysis)
   Christopher J. Cramer and Donald G. Truhlar   : smd solvation model
   Lars Goerigk                                  : TD-DFT with DH, B97 family of functionals
   V. Asgeirsson, H. Jonsson                     : NEB implementation
   FAccTs GmbH                                   : IRC, NEB, NEB-TS, DLPNO-Multilevel, CI-OPT
                                                   MM, QMMM, 2- and 3-layer-ONIOM, Crystal-QMMM,
                                                   LR-CPCM, SF, NACMEs, symmetry and pop. for TD-DFT,
                                                   nearIR, NL-DFT gradient (VV10), updates on ESD,
                                                   ML-optimized integration grids
   S Lehtola, MJT Oliveira, MAL Marques          : LibXC Library
   Liviu Ungur et al                             : ANISO software


 Your calculation uses the libint2 library for the computation of 2-el integrals
 For citations please refer to: http://libint.valeyev.net

 Your ORCA version has been built with support for libXC version: 5.1.0
 For citations please refer to: https://tddft.org/programs/libxc/

 This ORCA versions uses:
   CBLAS   interface :  Fast vector & matrix operations
   LAPACKE interface :  Fast linear algebra routines
   SCALAPACK package :  Parallel linear algebra routines
   Shared memory     :  Shared parallel matrices
   BLAS/LAPACK       :  OpenBLAS 0.3.15  USE64BITINT DYNAMIC_ARCH NO_AFFINITY Haswell SINGLE_THREADED
        Core in use  :  Haswell
   Copyright (c) 2011-2014, The OpenBLAS Project


Your calculation utilizes the atom-pairwise dispersion correction
with the Becke-Johnson damping scheme (D3BJ)
Cite in your paper:
S.Grimme, S.Ehrlich, L.Goerigk, J Comput Chem, (2011), 32, 1456–1465 
S.Grimme, J.Antony, S.Ehrlich and H.Krieg, J.Chem.Phys., 132, (2010), 154104 
   

================================================================================

----- Orbital basis set information -----
Your calculation utilizes the basis: def2-TZVP
   F. Weigend and R. Ahlrichs, Phys. Chem. Chem. Phys. 7, 3297 (2005).

----- AuxJ basis set information -----
Your calculation utilizes the auxiliary basis: def2/J
   F. Weigend, Phys. Chem. Chem. Phys. 8, 1057 (2006).

================================================================================
                                        WARNINGS
                       Please study these warnings very carefully!
================================================================================

WARNING: Gradients needed for Numerical Frequencies
  ===> : Setting RunTyp to EnGrad

WARNING: The environment variable RSH_COMMAND is not set!
  ===> : All Displacements for the Numerical Hessian or Gradient calculation
         will be started on localhost

INFO   : the flag for use of the SHARK integral package has been found!

Your calculation utilizes the atom-pairwise dispersion correction
with the Becke-Johnson damping scheme (D3BJ)
Cite in your paper:
S.Grimme, S.Ehrlich, L.Goerigk, J Comput Chem, (2011), 32, 1456–1465 
S.Grimme, J.Antony, S.Ehrlich and H.Krieg, J.Chem.Phys., 132, (2010), 154104 
   

================================================================================

----- Orbital basis set information -----
Your calculation utilizes the basis: def2-TZVP
   F. Weigend and R. Ahlrichs, Phys. Chem. Chem. Phys. 7, 3297 (2005).

----- AuxJ basis set information -----
Your calculation utilizes the auxiliary basis: def2/J
   F. Weigend, Phys. Chem. Chem. Phys. 8, 1057 (2006).

================================================================================
                                        WARNINGS
                       Please study these warnings very carefully!
================================================================================


WARNING: MOInp is set but Guess=PModel. MOInp will be ignored!
         To read the initial guess from a file you must also specify
         'MORead' in the simple input or 'Guess MORead' in the %scf block

WARNING: Gradients needed for Numerical Frequencies
  ===> : Setting RunTyp to EnGrad

WARNING: The environment variable RSH_COMMAND is not set!
  ===> : All Displacements for the Numerical Hessian or Gradient calculation
         will be started on localhost

INFO   : the flag for use of the SHARK integral package has been found!

Your calculation utilizes the atom-pairwise dispersion correction
with the Becke-Johnson damping scheme (D3BJ)
Cite in your paper:
S.Grimme, S.Ehrlich, L.Goerigk, J Comput Chem, (2011), 32, 1456–1465 
S.Grimme, J.Antony, S.Ehrlich and H.Krieg, J.Chem.Phys., 132, (2010), 154104 
   

================================================================================

----- Orbital basis set information -----
Your calculation utilizes the basis: def2-TZVP
   F. Weigend and R. Ahlrichs, Phys. Chem. Chem. Phys. 7, 3297 (2005).

----- AuxJ basis set information -----
Your calculation utilizes the auxiliary basis: def2/J
   F. Weigend, Phys. Chem. Chem. Phys. 8, 1057 (2006).

================================================================================
                                        WARNINGS
                       Please study these warnings very carefully!
================================================================================


WARNING: MOInp is set but Guess=PModel. MOInp will be ignored!
         To read the initial guess from a file you must also specify
         'MORead' in the simple input or 'Guess MORead' in the %scf block

WARNING: Gradients needed for Numerical Frequencies
  ===> : Setting RunTyp to EnGrad

WARNING: The environment variable RSH_COMMAND is not set!
  ===> : All Displacements for the Numerical Hessian or Gradient calculation
         will be started on localhost

INFO   : the flag for use of the SHARK integral package has been found!

Your calculation utilizes the atom-pairwise dispersion correction
with the Becke-Johnson damping scheme (D3BJ)
Cite in your paper:
S.Grimme, S.Ehrlich, L.Goerigk, J Comput Chem, (2011), 32, 1456–1465 
S.Grimme, J.Antony, S.Ehrlich and H.Krieg, J.Chem.Phys., 132, (2010), 154104 
   

================================================================================

----- Orbital basis set information -----
Your calculation utilizes the basis: def2-TZVP
   F. Weigend and R. Ahlrichs, Phys. Chem. Chem. Phys. 7, 3297 (2005).

----- AuxJ basis set information -----
Your calculation utilizes the auxiliary basis: def2/J
   F. Weigend, Phys. Chem. Chem. Phys. 8, 1057 (2006).

================================================================================
                                        WARNINGS
                       Please study these warnings very carefully!
================================================================================


WARNING: MOInp is set but Guess=PModel. MOInp will be ignored!
         To read the initial guess from a file you must also specify
         'MORead' in the simple input or 'Guess MORead' in the %scf block

WARNING: Gradients needed for Numerical Frequencies
  ===> : Setting RunTyp to EnGrad

WARNING: The environment variable RSH_COMMAND is not set!
  ===> : All Displacements for the Numerical Hessian or Gradient calculation
         will be started on localhost

INFO   : the flag for use of the SHARK integral package has been found!

Your calculation utilizes the atom-pairwise dispersion correction
with the Becke-Johnson damping scheme (D3BJ)
Cite in your paper:
S.Grimme, S.Ehrlich, L.Goerigk, J Comput Chem, (2011), 32, 1456–1465 
S.Grimme, J.Antony, S.Ehrlich and H.Krieg, J.Chem.Phys., 132, (2010), 154104 
   

================================================================================

----- Orbital basis set information -----
Your calculation utilizes the basis: def2-TZVP
   F. Weigend and R. Ahlrichs, Phys. Chem. Chem. Phys. 7, 3297 (2005).

----- AuxJ basis set information -----
Your calculation utilizes the auxiliary basis: def2/J
   F. Weigend, Phys. Chem. Chem. Phys. 8, 1057 (2006).

================================================================================
                                        WARNINGS
                       Please study these warnings very carefully!
================================================================================


WARNING: MOInp is set but Guess=PModel. MOInp will be ignored!
         To read the initial guess from a file you must also specify
         'MORead' in the simple input or 'Guess MORead' in the %scf block

WARNING: Gradients needed for Numerical Frequencies
  ===> : Setting RunTyp to EnGrad

WARNING: The environment variable RSH_COMMAND is not set!
  ===> : All Displacements for the Numerical Hessian or Gradient calculation
         will be started on localhost

INFO   : the flag for use of the SHARK integral package has been found!

================================================================================
                                       INPUT FILE
================================================================================
NAME = ex.inp
|  1> ! PBE D3 def2-TZVP numfreq PModel NOAUTOSTART cpcm(water)
|  2> 
|  3> %pal nprocs=16 end
|  4> %geom maxiter=150 end 
|  5> %base "1_M0001"
|  6> 
|  7> * xyz 0 1
|  8> 8        2.915711000     -2.145336000     -0.071780000
|  9> 6        2.182078000     -1.035316000     -0.216318000
| 10> 6        0.729710000     -1.105456000     -0.496832000
| 11> 6       -0.009761000      0.014983000     -0.639845000
| 12> 6       -1.496476000     -0.059044000     -0.905511000
| 13> 6       -2.271812000     -0.345994000      0.408601000
| 14> 7       -2.054248000      0.710545000      1.426609000
| 15> 1       -2.600459000      0.540476000      2.259362000
| 16> 1       -1.091500000      0.765704000      1.725095000
| 17> 1       -2.317673000      1.622921000      1.083567000
| 18> 6        0.660670000      1.326672000     -0.513475000
| 19> 6        1.982081000      1.393560000     -0.260573000
| 20> 6        2.770665000      0.160014000     -0.105508000
| 21> 8        4.241447000      0.249090000      0.178348000
| 22> 1        2.428299000     -2.956218000     -0.163779000
| 23> 1        0.249945000     -2.080013000     -0.586611000
| 24> 1       -1.854382000      0.888174000     -1.339070000
| 25> 1       -1.703849000     -0.854101000     -1.640670000
| 26> 1       -3.348370000     -0.416589000      0.171998000
| 27> 1       -1.952718000     -1.323610000      0.810152000
| 28> 1        0.082070000      2.246096000     -0.608310000
| 29> 1        2.484339000      2.350932000     -0.223869000
| 30> 29       6.691820210      0.397493668      0.651261823
| 31> 29       8.446657422     -0.042076986      2.878347001
| 32> 29       8.002573990     -2.002591909      0.904232912
| 33> 29       9.149394705     -0.042076986     -0.762842004
| 34> 29       7.556330665      2.508281568      2.304925392
| 35> 29       8.109622797      2.508281567     -0.561922974
| 36> 29      10.069866436      1.723349626      1.303213430
| 37> 29      10.679599639     -0.951880886      1.420889896
| 38> *
| 39> 
| 40> $new_job
| 41> 
| 42> ! PBE D3 def2-TZVP numfreq PModel NOAUTOSTART cpcm(water)
| 43> %pal nprocs=16 end
| 44> %geom maxiter=150 end
| 45> %base "2_M0002"
| 46> 
| 47> * xyz 0 1
| 48> 8        3.036782000     -1.702535000     -0.306303000
| 49> 6        2.228842000     -0.635493000     -0.300185000
| 50> 6        0.786021000     -0.762563000     -0.609398000
| 51> 6       -0.028158000      0.314784000     -0.598195000
| 52> 6       -1.507463000      0.201663000     -0.890934000
| 53> 6       -2.321226000      0.162624000      0.430607000
| 54> 7       -1.965618000     -1.005658000      1.272309000
| 55> 1       -2.537300000     -1.050369000      2.104141000
| 56> 1       -2.095244000     -1.877224000      0.779303000
| 57> 1       -1.007543000     -0.975567000      1.588679000
| 58> 6        0.550259000      1.635478000     -0.274342000
| 59> 6        1.862765000      1.755194000      0.003516000
| 60> 6        2.733302000      0.568036000     -0.009269000
| 61> 8        4.193050000      0.713740000      0.306352000
| 62> 1        2.607585000     -2.522971000     -0.521281000
| 63> 1        0.379714000     -1.746234000     -0.843910000
| 64> 1       -1.820982000      1.072411000     -1.489556000
| 65> 1       -1.729404000     -0.699520000     -1.484919000
| 66> 1       -2.142203000      1.096347000      0.991942000
| 67> 1       -3.396004000      0.123931000      0.178914000
| 68> 1       -0.093763000      2.515081000     -0.246660000
| 69> 1        2.297513000      2.729453000      0.183049000
| 70> 29       6.625039086      0.956487747      0.832187163
| 71> 29       8.344571161      0.598416387      3.101014776
| 72> 29       8.017679616     -1.391354873      1.133298448
| 73> 29       9.128273436      0.598416387     -0.523610419
| 74> 29       7.373588640      3.109749606      2.487646016
| 75> 29       7.990627630      3.109749606     -0.366161025
| 76> 29       9.936263153      2.411601643      1.548127072
| 77> 29      10.641750207     -0.238209841      1.700664722
| 78> *
| 79> 
| 80> $new_job
| 81> 
| 82> ! PBE D3 def2-TZVP numfreq PModel NOAUTOSTART cpcm(water)
| 83> %pal nprocs=16 end
| 84> %geom maxiter=150 end
| 85> %base "3_M0003"
| 86> 
| 87> * xyz 0 1
| 88> 8        3.266227000     -1.923031000      0.058566000
| 89> 6        2.503268000     -0.827159000     -0.032295000
| 90> 6        1.054011000     -0.921893000     -0.322149000
| 91> 6        0.288854000      0.183707000     -0.415727000
| 92> 6       -1.194899000      0.091014000     -0.693917000
| 93> 6       -1.967532000     -0.104657000      0.637082000
| 94> 7       -3.430612000     -0.190154000      0.411878000
| 95> 1       -3.933738000     -0.317680000      1.278720000
| 96> 1       -3.794872000      0.647699000     -0.018286000
| 97> 1       -3.674344000     -0.966536000     -0.186082000
| 98> 6        0.922929000      1.504249000     -0.218418000
| 99> 6        2.238153000      1.594719000      0.046769000
|100> 6        3.059206000      0.376299000      0.141631000
|101> 8        4.526340000      0.490008000      0.435425000
|102> 1        2.801305000     -2.741018000     -0.076727000
|103> 1        0.601652000     -1.903620000     -0.462029000
|104> 1       -1.542037000      1.011985000     -1.188480000
|105> 1       -1.407397000     -0.748654000     -1.375108000
|106> 1       -1.610079000     -1.028101000      1.125669000
|107> 1       -1.740961000      0.742621000      1.308043000
|108> 1        0.317907000      2.410130000     -0.268514000
|109> 1        2.717459000      2.564001000      0.129175000
|110> 29       6.970625546      0.679450318      0.924893874
|111> 29       8.716673556      0.275230988      3.165542770
|112> 29       8.318122297     -1.698347262      1.194730481
|113> 29       9.444822158      0.275230988     -0.470649837
|114> 29       7.789360493      2.809073869      2.577704723
|115> 29       8.362659937      2.809073868     -0.285209787
|116> 29      10.322190840      2.061729751      1.596045776
|117> 29      10.974162403     -0.602921904      1.726603267
|118> *
|119> 
|120> $new_job
|121> 
|122> ! PBE D3 def2-TZVP numfreq PModel NOAUTOSTART cpcm(water)
|123> %pal nprocs=16 end
|124> %geom maxiter=150 end
|125> %base "4_M0004"
|126> 
|127> * xyz 0 1
|128> 8        2.804506000     -2.218687000     -0.081543000
|129> 6        2.120519000     -1.074250000     -0.222137000
|130> 6        0.674742000     -1.137289000     -0.501641000
|131> 6       -0.071467000     -0.023011000     -0.650644000
|132> 6       -1.557129000     -0.106674000     -0.916292000
|133> 6       -2.331361000     -0.388052000      0.399610000
|134> 7       -2.120642000      0.677585000      1.409538000
|135> 1       -2.666218000      0.510628000      2.243336000
|136> 1       -1.158387000      0.740868000      1.707997000
|137> 1       -2.389395000      1.585677000      1.059335000
|138> 6        0.597476000      1.288888000     -0.530592000
|139> 6        1.919106000      1.353869000     -0.278134000
|140> 6        2.714693000      0.124452000     -0.115613000
|141> 8        4.183718000      0.254884000      0.167795000
|142> 1        3.734157000     -2.132929000      0.097952000
|143> 1        0.223876000     -2.125970000     -0.581469000
|144> 1       -1.919042000      0.835501000     -1.357442000
|145> 1       -1.758928000     -0.908993000     -1.645073000
|146> 1       -3.407345000     -0.466972000      0.163048000
|147> 1       -2.006376000     -1.360644000      0.808617000
|148> 1        0.018401000      2.207518000     -0.630200000
|149> 1        2.419023000      2.312562000     -0.244965000
|150> 29       6.629178090      0.472011857      0.639579315
|151> 29       8.395269957      0.091728167      2.868679632
|152> 29       8.004402706     -1.890369892      0.904891109
|153> 29       9.097746992      0.091728167     -0.772559590
|154> 29       7.436251474      2.614029534      2.282077386
|155> 29       7.989338704      2.614029533     -0.584810519
|156> 29       9.970107588      1.892183970      1.284119842
|157> 29      10.652014182     -0.764915438      1.415674978
|158> *
|159> 
|160> $new_job
|161> 
|162> ! PBE D3 def2-TZVP numfreq PModel NOAUTOSTART cpcm(water)
|163> %pal nprocs=16 end
|164> %geom maxiter=150 end
|165> %base "5_M0005"
|166> 
|167> * xyz 0 1
|168> 8        2.618028000     -1.924163000      1.148274000
|169> 6        1.892695000     -0.804126000      1.018802000
|170> 6        0.454162000     -0.917308000      0.718116000
|171> 6       -0.312430000      0.161677000      0.583028000
|172> 6       -1.792763000      0.047744000      0.298897000
|173> 6       -2.076905000      0.288552000     -1.208205000
|174> 7       -1.400607000     -0.710281000     -2.071197000
|175> 1       -1.633481000     -0.576239000     -3.045140000
|176> 1       -0.394596000     -0.654169000     -2.010265000
|177> 1       -1.666778000     -1.654558000     -1.832485000
|178> 6        0.304564000      1.494500000      0.736602000
|179> 6        1.600021000      1.615279000      1.003317000
|180> 6        2.439451000      0.414011000      1.154984000
|181> 8        3.898593000      0.594624000      1.461011000
|182> 1        3.541335000     -1.806583000      1.341918000
|183> 1        0.048366000     -1.922922000      0.613273000
|184> 1       -2.178466000     -0.942209000      0.591250000
|185> 1       -2.330548000      0.799415000      0.899384000
|186> 1       -3.168301000      0.239800000     -1.370850000
|187> 1       -1.742895000      1.305141000     -1.480160000
|188> 1       -0.311453000      2.389346000      0.641705000
|189> 1        2.079814000      2.604480000      1.061713000
|190> 29       6.327600008      0.895287159      1.970448551
|191> 29       8.068766699      0.587650758      4.230157115
|192> 29       7.775249074     -1.418715818      2.274065129
|193> 29       8.829967269      0.587650758      0.600739703
|194> 29       7.037009699      3.073166017      3.610871866
|195> 29       7.636332230      3.073166018      0.753291728
|196> 29       9.609115628      2.428949199      2.658683405
|197> 29      10.375776389     -0.203323149      2.819475769
|198> *
|199> 
|200> 
|201> 
|202> 
|203>                          ****END OF INPUT****
================================================================================


                 $$$$$$$$$$$$$$$$$$$$$$$$$$$$$$$$$$$$$$$$$$$$$$ 
                 $ THERE ARE  5 JOBS TO BE PROCESSED THIS RUN $
                 $$$$$$$$$$$$$$$$$$$$$$$$$$$$$$$$$$$$$$$$$$$$$$ 




                 $$$$$$$$$$$$$$$$  JOB NUMBER  1 $$$$$$$$$$$$$$


                     *******************************
                     * Energy+Gradient Calculation *
                     *******************************

---------------------------------
CARTESIAN COORDINATES (ANGSTROEM)
---------------------------------
  O      2.915711   -2.145336   -0.071780
  C      2.182078   -1.035316   -0.216318
  C      0.729710   -1.105456   -0.496832
  C     -0.009761    0.014983   -0.639845
  C     -1.496476   -0.059044   -0.905511
  C     -2.271812   -0.345994    0.408601
  N     -2.054248    0.710545    1.426609
  H     -2.600459    0.540476    2.259362
  H     -1.091500    0.765704    1.725095
  H     -2.317673    1.622921    1.083567
  C      0.660670    1.326672   -0.513475
  C      1.982081    1.393560   -0.260573
  C      2.770665    0.160014   -0.105508
  O      4.241447    0.249090    0.178348
  H      2.428299   -2.956218   -0.163779
  H      0.249945   -2.080013   -0.586611
  H     -1.854382    0.888174   -1.339070
  H     -1.703849   -0.854101   -1.640670
  H     -3.348370   -0.416589    0.171998
  H     -1.952718   -1.323610    0.810152
  H      0.082070    2.246096   -0.608310
  H      2.484339    2.350932   -0.223869
  Cu     6.691820    0.397494    0.651262
  Cu     8.446657   -0.042077    2.878347
  Cu     8.002574   -2.002592    0.904233
  Cu     9.149395   -0.042077   -0.762842
  Cu     7.556331    2.508282    2.304925
  Cu     8.109623    2.508282   -0.561923
  Cu    10.069866    1.723350    1.303213
  Cu    10.679600   -0.951881    1.420890

----------------------------
CARTESIAN COORDINATES (A.U.)
----------------------------
  NO LB      ZA    FRAG     MASS         X           Y           Z
   0 O     8.0000    0    15.999    5.509895   -4.054098   -0.135645
   1 C     6.0000    0    12.011    4.123530   -1.956464   -0.408782
   2 C     6.0000    0    12.011    1.378952   -2.089009   -0.938876
   3 C     6.0000    0    12.011   -0.018446    0.028314   -1.209132
   4 C     6.0000    0    12.011   -2.827930   -0.111577   -1.711168
   5 C     6.0000    0    12.011   -4.293103   -0.653834    0.772144
   6 N     7.0000    0    14.007   -3.881966    1.342735    2.695900
   7 H     1.0000    0     1.008   -4.914155    1.021352    4.269575
   8 H     1.0000    0     1.008   -2.062636    1.446971    3.259957
   9 H     1.0000    0     1.008   -4.379767    3.066876    2.047645
  10 C     6.0000    0    12.011    1.248485    2.507047   -0.970327
  11 C     6.0000    0    12.011    3.745590    2.633447   -0.492412
  12 C     6.0000    0    12.011    5.235798    0.302383   -0.199381
  13 O     8.0000    0    15.999    8.015173    0.470712    0.337029
  14 H     1.0000    0     1.008    4.588820   -5.586442   -0.309497
  15 H     1.0000    0     1.008    0.472328   -3.930655   -1.108534
  16 H     1.0000    0     1.008   -3.504274    1.678406   -2.530476
  17 H     1.0000    0     1.008   -3.219808   -1.614017   -3.100417
  18 H     1.0000    0     1.008   -6.327502   -0.787239    0.325029
  19 H     1.0000    0     1.008   -3.690102   -2.501260    1.530965
  20 H     1.0000    0     1.008    0.155090    4.244506   -1.149539
  21 H     1.0000    0     1.008    4.694720    4.442618   -0.423051
  22 Cu   29.0000    0    63.550   12.645708    0.751154    1.230706
  23 Cu   29.0000    0    63.550   15.961869   -0.079514    5.439288
  24 Cu   29.0000    0    63.550   15.122673   -3.784350    1.708753
  25 Cu   29.0000    0    63.550   17.289850   -0.079514   -1.441562
  26 Cu   29.0000    0    63.550   14.279396    4.739965    4.355678
  27 Cu   29.0000    0    63.550   15.324966    4.739965   -1.061881
  28 Cu   29.0000    0    63.550   19.029290    3.256659    2.462716
  29 Cu   29.0000    0    63.550   20.181519   -1.798794    2.685093

--------------------------------
INTERNAL COORDINATES (ANGSTROEM)
--------------------------------
 O      0   0   0     0.000000000000     0.00000000     0.00000000
 C      1   0   0     1.338377006875     0.00000000     0.00000000
 C      2   1   0     1.480871544470   121.25010416     0.00000000
 C      3   2   1     1.350056899072   121.19472179   179.86949607
 C      4   3   2     1.512078011053   121.09957099   180.93339906
 C      5   4   3     1.552538747967   110.57031942    79.14304527
 N      6   5   4     1.483222518937   112.08826820    60.14906177
 H      7   6   5     1.010320483951   111.50064589   177.00253813
 H      7   6   5     1.009465263880   112.44288803   296.31544251
 H      7   6   5     1.009703179041   111.85207897    57.32899260
 C      4   3   2     1.478504357580   118.61080934     0.12607216
 C     11   4   3     1.347056218971   120.32595263     0.00000000
 C      2   1   3     1.336984413361   119.42202592   179.99882376
 O     13   2   1     1.500569376615   120.01627640     0.00000000
 H      1   2   3     0.950559778062   114.58122247     0.00000000
 H      3   2   1     1.089952324790   119.31762277     0.03097452
 H      5   4   3     1.101495370322   110.27538276   200.08730662
 H      5   4   3     1.102532516373   109.71790168   318.00675934
 H      6   5   4     1.104509737847   108.49705429   181.31978110
 H      6   5   4     1.103991499013   109.09847051   298.32002061
 H     11   4   3     1.090464180522   119.99895977   181.02060178
 H     12  11   4     1.081744622618   120.38317161   176.49992583
 Cu    14  13   2     2.500000000189   180.00000000     0.00000000
 Cu    23  14  13     2.869248053157   137.49305619     0.00000000
 Cu    23  14  13     2.746357700770   115.67991018     0.00000000
 Cu    25  23  14     2.817437717362    62.07294123   131.85336024
 Cu    24  23  14     2.761489241308    60.01000890   263.32528844
 Cu    26  25  23     2.761489240635   116.50883337    12.78117779
 Cu    27  24  23     2.817340426800    61.89311821   264.22526876
 Cu    29  27  24     2.746357700997   117.01550016    12.86155630

---------------------------
INTERNAL COORDINATES (A.U.)
---------------------------
 O      0   0   0     0.000000000000     0.00000000     0.00000000
 C      1   0   0     2.529166006932     0.00000000     0.00000000
 C      2   1   0     2.798441658565   121.25010416     0.00000000
 C      3   2   1     2.551237804456   121.19472179   179.86949607
 C      4   3   2     2.857413334015   121.09957099   180.93339906
 C      5   4   3     2.933873045959   110.57031942    79.14304527
 N      6   5   4     2.802884356455   112.08826820    60.14906177
 H      7   6   5     1.909229022158   111.50064589   177.00253813
 H      7   6   5     1.907612890440   112.44288803   296.31544251
 H      7   6   5     1.908062484937   111.85207897    57.32899260
 C      4   3   2     2.793968323635   118.61080934     0.12607216
 C     11   4   3     2.545567340851   120.32595263     0.00000000
 C      2   1   3     2.526534386573   119.42202592   179.99882376
 O     13   2   1     2.835665166752   120.01627640     0.00000000
 H      1   2   3     1.796297654458   114.58122247     0.00000000
 H      3   2   1     2.059711392884   119.31762277     0.03097452
 H      5   4   3     2.081524587691   110.27538276   200.08730662
 H      5   4   3     2.083484509687   109.71790168   318.00675934
 H      6   5   4     2.087220916779   108.49705429   181.31978110
 H      6   5   4     2.086241587312   109.09847051   298.32002061
 H     11   4   3     2.060678660037   119.99895977   181.02060178
 H     12  11   4     2.044201083591   120.38317161   176.49992583
 Cu    14  13   2     4.724315335161   180.00000000     0.00000000
 Cu    23  14  13     5.422093030753   137.49305619     0.00000000
 Cu    23  14  13     5.189863920241   115.67991018     0.00000000
 Cu    25  23  14     5.324185685195    62.07294123   131.85336024
 Cu    24  23  14     5.218458387842    60.01000890   263.32528844
 Cu    26  25  23     5.218458386570   116.50883337    12.78117779
 Cu    27  24  23     5.324001832677    61.89311821   264.22526876
 Cu    29  27  24     5.189863920670   117.01550016    12.86155630

---------------------
BASIS SET INFORMATION
---------------------
There are 5 groups of distinct atoms

 Group   1 Type O   : 11s6p2d1f contracted to 5s3p2d1f pattern {62111/411/11/1}
 Group   2 Type C   : 11s6p2d1f contracted to 5s3p2d1f pattern {62111/411/11/1}
 Group   3 Type N   : 11s6p2d1f contracted to 5s3p2d1f pattern {62111/411/11/1}
 Group   4 Type H   : 5s1p contracted to 3s1p pattern {311/1}
 Group   5 Type Cu  : 17s11p7d1f contracted to 6s4p4d1f pattern {842111/6311/4111/1}

Atom   0O    basis set group =>   1
Atom   1C    basis set group =>   2
Atom   2C    basis set group =>   2
Atom   3C    basis set group =>   2
Atom   4C    basis set group =>   2
Atom   5C    basis set group =>   2
Atom   6N    basis set group =>   3
Atom   7H    basis set group =>   4
Atom   8H    basis set group =>   4
Atom   9H    basis set group =>   4
Atom  10C    basis set group =>   2
Atom  11C    basis set group =>   2
Atom  12C    basis set group =>   2
Atom  13O    basis set group =>   1
Atom  14H    basis set group =>   4
Atom  15H    basis set group =>   4
Atom  16H    basis set group =>   4
Atom  17H    basis set group =>   4
Atom  18H    basis set group =>   4
Atom  19H    basis set group =>   4
Atom  20H    basis set group =>   4
Atom  21H    basis set group =>   4
Atom  22Cu   basis set group =>   5
Atom  23Cu   basis set group =>   5
Atom  24Cu   basis set group =>   5
Atom  25Cu   basis set group =>   5
Atom  26Cu   basis set group =>   5
Atom  27Cu   basis set group =>   5
Atom  28Cu   basis set group =>   5
Atom  29Cu   basis set group =>   5
---------------------------------
AUXILIARY/J BASIS SET INFORMATION
---------------------------------
There are 5 groups of distinct atoms

 Group   1 Type O   : 12s5p4d2f1g contracted to 6s4p3d1f1g pattern {711111/2111/211/2/1}
 Group   2 Type C   : 12s5p4d2f1g contracted to 6s4p3d1f1g pattern {711111/2111/211/2/1}
 Group   3 Type N   : 12s5p4d2f1g contracted to 6s4p3d1f1g pattern {711111/2111/211/2/1}
 Group   4 Type H   : 5s2p1d contracted to 3s1p1d pattern {311/2/1}
 Group   5 Type Cu  : 19s5p5d3f3g contracted to 8s5p4d3f3g pattern {121111111/11111/2111/111/111}

Atom   0O    basis set group =>   1
Atom   1C    basis set group =>   2
Atom   2C    basis set group =>   2
Atom   3C    basis set group =>   2
Atom   4C    basis set group =>   2
Atom   5C    basis set group =>   2
Atom   6N    basis set group =>   3
Atom   7H    basis set group =>   4
Atom   8H    basis set group =>   4
Atom   9H    basis set group =>   4
Atom  10C    basis set group =>   2
Atom  11C    basis set group =>   2
Atom  12C    basis set group =>   2
Atom  13O    basis set group =>   1
Atom  14H    basis set group =>   4
Atom  15H    basis set group =>   4
Atom  16H    basis set group =>   4
Atom  17H    basis set group =>   4
Atom  18H    basis set group =>   4
Atom  19H    basis set group =>   4
Atom  20H    basis set group =>   4
Atom  21H    basis set group =>   4
Atom  22Cu   basis set group =>   5
Atom  23Cu   basis set group =>   5
Atom  24Cu   basis set group =>   5
Atom  25Cu   basis set group =>   5
Atom  26Cu   basis set group =>   5
Atom  27Cu   basis set group =>   5
Atom  28Cu   basis set group =>   5
Atom  29Cu   basis set group =>   5


           ************************************************************
           *        Program running with 16 parallel MPI-processes    *
           *              working on a common directory               *
           ************************************************************
------------------------------------------------------------------------------
                           ORCA GTO INTEGRAL CALCULATION
                           -- RI-GTO INTEGRALS CHOSEN --
------------------------------------------------------------------------------
------------------------------------------------------------------------------
                   ___                                                        
                  /   \      - P O W E R E D   B Y -                         
                 /     \                                                     
                 |  |  |   _    _      __       _____    __    __             
                 |  |  |  | |  | |    /  \     |  _  \  |  |  /  |          
                  \  \/   | |  | |   /    \    | | | |  |  | /  /          
                 / \  \   | |__| |  /  /\  \   | |_| |  |  |/  /          
                |  |  |   |  __  | /  /__\  \  |    /   |      \           
                |  |  |   | |  | | |   __   |  |    \   |  |\   \          
                \     /   | |  | | |  |  |  |  | |\  \  |  | \   \       
                 \___/    |_|  |_| |__|  |__|  |_| \__\ |__|  \__/        
                                                                              
                      - O R C A' S   B I G   F R I E N D -                    
                                      &                                       
                       - I N T E G R A L  F E E D E R -                       
                                                                              
 v1 FN, 2020, v2 2021                                                         
------------------------------------------------------------------------------


Reading SHARK input file 1_M0001.SHARKINP.tmp ... ok
----------------------
SHARK INTEGRAL PACKAGE
----------------------

Number of atoms                             ...     30
Number of basis functions                   ...    767
Number of shells                            ...    285
Maximum angular momentum                    ...      3
Integral batch strategy                     ... SHARK/LIBINT Hybrid
RI-J (if used) integral strategy            ... SPLIT-RIJ (Revised 2003 algorithm where possible)
Printlevel                                  ...      1
Contraction scheme used                     ... SEGMENTED contraction
Coulomb Range Separation                    ... NOT USED
Exchange Range Separation                   ... NOT USED
Finite Nucleus Model                        ... NOT USED
Auxiliary Coulomb fitting basis             ... AVAILABLE
   # of basis functions in Aux-J            ...   1388
   # of shells in Aux-J                     ...    404
   Maximum angular momentum in Aux-J        ...      4
Auxiliary J/K fitting basis                 ... NOT available
Auxiliary Correlation fitting basis         ... NOT available
Auxiliary 'external' fitting basis          ... NOT available
Integral threshold                          ...     2.500000e-11
Primitive cut-off                           ...     2.500000e-12
Primitive pair pre-selection threshold      ...     2.500000e-12

Calculating pre-screening integrals         ... done (  0.2 sec) Dimension = 285
Organizing shell pair data                  ... done (  0.8 sec)
Shell pair information
Total number of shell pairs                 ...     40755
Shell pairs after pre-screening             ...     23081
Total number of primitive shell pairs       ...    165772
Primitive shell pairs kept                  ...     54306
          la=0 lb=0:   5474 shell pairs
          la=1 lb=0:   5870 shell pairs
          la=1 lb=1:   1682 shell pairs
          la=2 lb=0:   4198 shell pairs
          la=2 lb=1:   2403 shell pairs
          la=2 lb=2:    926 shell pairs
          la=3 lb=0:   1234 shell pairs
          la=3 lb=1:    702 shell pairs
          la=3 lb=2:    506 shell pairs
          la=3 lb=3:     86 shell pairs

Calculating one electron integrals          ... done (  0.1 sec)
Calculating RI/J V-Matrix + Cholesky decomp.... done (  0.1 sec)
Calculating Nuclear repulsion               ... done (  0.0 sec) ENN=   5797.684233147940 Eh

SHARK setup successfully completed in   1.8 seconds

Maximum memory used throughout the entire GTOINT-calculation: 42.0 MB


           ************************************************************
           *        Program running with 16 parallel MPI-processes    *
           *              working on a common directory               *
           ************************************************************
-------------------------------------------------------------------------------
                                 ORCA SCF
-------------------------------------------------------------------------------

------------
SCF SETTINGS
------------
Hamiltonian:
 Density Functional     Method          .... DFT(GTOs)
 Exchange Functional    Exchange        .... PBE
   PBE kappa parameter   XKappa         ....  0.804000
   PBE mue parameter    XMuePBE         ....  0.219520
 Correlation Functional Correlation     .... PBE
   PBE beta parameter  CBetaPBE         ....  0.066725
 LDA part of GGA corr.  LDAOpt          .... PW91-LDA
 Gradients option       PostSCFGGA      .... off
   Density functional embedding theory  .... OFF
   NL short-range parameter             ....  6.400000
 RI-approximation to the Coulomb term is turned on
   Number of AuxJ basis functions       .... 1388


General Settings:
 Integral files         IntName         .... 1_M0001
 Hartree-Fock type      HFTyp           .... RHF
 Total Charge           Charge          ....    0
 Multiplicity           Mult            ....    1
 Number of Electrons    NEL             ....  314
 Basis Dimension        Dim             ....  767
 Nuclear Repulsion      ENuc            ....   5797.6842331479 Eh

Convergence Acceleration:
 DIIS                   CNVDIIS         .... on
   Start iteration      DIISMaxIt       ....    12
   Startup error        DIISStart       ....  0.200000
   # of expansion vecs  DIISMaxEq       ....     5
   Bias factor          DIISBfac        ....   1.050
   Max. coefficient     DIISMaxC        ....  10.000
 Trust-Rad. Augm. Hess. CNVTRAH         .... auto
   Auto Start mean grad. ratio tolernc. ....  1.125000
   Auto Start start iteration           ....    20
   Auto Start num. interpolation iter.  ....    10
   Max. Number of Micro iterations      ....    16
   Max. Number of Macro iterations      .... Maxiter - #DIIS iter
   Number of Davidson start vectors     ....     2
   Converg. threshold I  (grad. norm)   ....   1.000e-05
   Converg. threshold II (energy diff.) ....   1.000e-08
   Grad. Scal. Fac. for Micro threshold ....   0.100
   Minimum threshold for Micro iter.    ....   0.010
   NR start threshold (gradient norm)   ....   0.001
   Initial trust radius                 ....   0.400
   Minimum AH scaling param. (alpha)    ....   1.000
   Maximum AH scaling param. (alpha)    .... 1000.000
   Orbital update algorithm             .... Taylor
   White noise on init. David. guess    .... on
   Maximum white noise                  ....   0.010
   Quad. conv. algorithm                .... NR
 SOSCF                  CNVSOSCF        .... off
 Level Shifting         CNVShift        .... on
   Level shift para.    LevelShift      ....    0.2500
   Turn off err/grad.   ShiftErr        ....    0.0010
 Zerner damping         CNVZerner       .... off
 Static damping         CNVDamp         .... on
   Fraction old density DampFac         ....    0.7000
   Max. Damping (<1)    DampMax         ....    0.9800
   Min. Damping (>=0)   DampMin         ....    0.0000
   Turn off err/grad.   DampErr         ....    0.1000
 Fernandez-Rico         CNVRico         .... off

SCF Procedure:
 Maximum # iterations   MaxIter         ....   125
 SCF integral mode      SCFMode         .... Direct
   Integral package                     .... SHARK and LIBINT hybrid scheme
 Reset frequency        DirectResetFreq ....    20
 Integral Threshold     Thresh          ....  2.500e-11 Eh
 Primitive CutOff       TCut            ....  2.500e-12 Eh

Convergence Tolerance:
 Convergence Check Mode ConvCheckMode   .... Total+1el-Energy
 Convergence forced     ConvForced      .... 0
 Energy Change          TolE            ....  1.000e-08 Eh
 1-El. energy change                    ....  1.000e-05 Eh
 DIIS Error             TolErr          ....  5.000e-07


Diagonalization of the overlap matrix:
Smallest eigenvalue                        ... 9.009e-06
Time for diagonalization                   ...    0.161 sec
Threshold for overlap eigenvalues          ... 1.000e-08
Number of eigenvalues below threshold      ... 0
Time for construction of square roots      ...    0.164 sec
Total time needed                          ...    0.328 sec

Time for model grid setup =    0.558 sec

------------------------------
INITIAL GUESS: MODEL POTENTIAL
------------------------------
Loading Hartree-Fock densities                     ... done
Calculating cut-offs                               ... done
Initializing the effective Hamiltonian             ... done
Setting up the integral package (SHARK)            ... done
Starting the Coulomb interaction                   ... done (   0.5 sec)
Reading the grid                                   ... done
Mapping shells                                     ... done
Starting the XC term evaluation                    ... done (   0.2 sec)
  promolecular density results
     # of electrons  =    313.995600343
     EX              =   -590.915447341
     EC              =    -13.603044516
     EX+EC           =   -604.518491857
Transforming the Hamiltonian                       ... done (   0.1 sec)
Diagonalizing the Hamiltonian                      ... done (   0.2 sec)
Back transforming the eigenvectors                 ... done (   0.1 sec)
Now organizing SCF variables                       ... done
                      ------------------
                      INITIAL GUESS DONE (   1.8 sec)
                      ------------------
-------------------
DFT GRID GENERATION
-------------------

General Integration Accuracy     IntAcc      ... 4.388
Radial Grid Type                 RadialGrid  ... OptM3 with GC (2021)
Angular Grid (max. ang.)         AngularGrid ... 4 (Lebedev-302)
Angular grid pruning method      GridPruning ... 4 (adaptive)
Weight generation scheme         WeightScheme... Becke
Basis function cutoff            BFCut       ... 1.0000e-11
Integration weight cutoff        WCut        ... 1.0000e-14
Angular grids for H and He will be reduced by one unit
Partially contracted basis set               ... off
Rotationally invariant grid construction     ... off

Total number of grid points                  ...   190446
Total number of batches                      ...     2993
Average number of points per batch           ...       63
Average number of grid points per atom       ...     6348
Time for grid setup =    2.324 sec


--------------------
CPCM SOLVATION MODEL
--------------------
CPCM parameters:
  Epsilon                                         ...      80.4000
  Refrac                                          ...       1.3300
  Rsolv                                           ...       1.3000
  Surface type                                    ... GAUSSIAN VDW
  Epsilon function type                           ...         CPCM
Radii:
 Radius for O  used is    3.4469 Bohr (=   1.8240 Ang.)
 Radius for C  used is    3.8550 Bohr (=   2.0400 Ang.)
 Radius for N  used is    3.5149 Bohr (=   1.8600 Ang.)
 Radius for H  used is    2.4944 Bohr (=   1.3200 Ang.)
 Radius for Cu used is    3.1747 Bohr (=   1.6800 Ang.)
Calculating surface                               ...        done! (  0.0s)
GEPOL surface points                              ...         2076
GEPOL Volume                                      ...    2260.4609
GEPOL Surface-area                                ...    1349.7287
Calculating surface distance matrix               ...        done! (  0.1s)
Performing Cholesky decomposition & store         ...        done! (  0.4s)
Overall time for CPCM initialization              ...                 0.5s
--------------
SCF ITERATIONS
--------------
ITER       Energy         Delta-E        Max-DP      RMS-DP      [F,P]     Damp
               ***  Starting incremental Fock matrix formation  ***
  0 -13638.1024295705   0.000000000000 0.85830206  0.00304361  0.3597564 0.7000
  1 -13638.3724265250  -0.269996954474 0.53416587  0.00207742  0.0859397 0.7000
                               ***Turning on DIIS***
  2 -13638.4642094420  -0.091782917030 0.24772280  0.00159698  0.0453140 0.0000
  3 -13638.6435017198  -0.179292277775 0.53594023  0.00197008  0.0821676 0.0000
  4 -13638.6870975215  -0.043595801741 0.07501843  0.00039658  0.0520998 0.0000
  5 -13638.6916854131  -0.004587891532 0.02276992  0.00013982  0.0121443 0.0000
  6 -13638.6924740385  -0.000788625461 0.01869981  0.00009095  0.0034055 0.0000
  7 -13638.6925253691  -0.000051330608 0.00532461  0.00003200  0.0051549 0.0000
  8 -13638.6925835387  -0.000058169531 0.00175077  0.00001447  0.0016788 0.0000
  9 -13638.6926020012  -0.000018462517 0.00261805  0.00002511  0.0005621 0.0000
 10 -13638.6926075946  -0.000005593398 0.00178797  0.00000796  0.0008534 0.0000
 11 -13638.6926101076  -0.000002513038 0.00207794  0.00000736  0.0005020 0.0000
 12 -13638.6926107138  -0.000000606151 0.00079052  0.00000329  0.0003035 0.0000
 13 -13638.6926107224  -0.000000008598 0.00036148  0.00000165  0.0002391 0.0000
 14 -13638.6926108892  -0.000000166861 0.00022848  0.00000102  0.0001211 0.0000
 15 -13638.6926108905  -0.000000001231 0.00007145  0.00000057  0.0001165 0.0000
 16 -13638.6926109391  -0.000000048663 0.00024966  0.00000116  0.0000455 0.0000
 17 -13638.6926109823  -0.000000043186 0.00017451  0.00000085  0.0000250 0.0000
 18 -13638.6926109751   0.000000007163 0.00012521  0.00000077  0.0000186 0.0000
 19 -13638.6926109369   0.000000038230 0.00067015  0.00000401  0.0000053 0.0000
               *** Restarting incremental Fock matrix formation ***
                                   *** Resetting DIIS ***
 20 -13638.6926110294  -0.000000092530 0.00090332  0.00000557  0.0000062 0.0000
 21 -13638.6926110404  -0.000000010928 0.00002386  0.00000014  0.0000313 0.0000
 22 -13638.6926110308   0.000000009581 0.00008943  0.00000045  0.0000025 0.0000
 23 -13638.6926110614  -0.000000030615 0.00019783  0.00000105  0.0000013 0.0000
 24 -13638.6926110455   0.000000015894 0.00009104  0.00000049  0.0000018 0.0000
                            ***DIIS convergence achieved***

               *****************************************************
               *                     SUCCESS                       *
               *           SCF CONVERGED AFTER  25 CYCLES          *
               *****************************************************


----------------
TOTAL SCF ENERGY
----------------

Total Energy       :       -13638.69261099 Eh         -371127.69371 eV

Components:
Nuclear Repulsion  :         5797.68423315 Eh          157763.00850 eV
Electronic Energy  :       -19436.37684413 Eh         -528890.70221 eV
One Electron Energy:       -30599.33339973 Eh         -832650.19292 eV
Two Electron Energy:        11162.95655560 Eh          303759.49071 eV
CPCM Dielectric    :           -0.15540485 Eh              -4.22878 eV

Virial components:
Potential Energy   :       -27254.51898906 Eh         -741633.16559 eV
Kinetic Energy     :        13615.82637808 Eh          370505.47188 eV
Virial Ratio       :            2.00167939


DFT components:
N(Alpha)           :      157.000053519893 electrons
N(Beta)            :      157.000053519893 electrons
N(Total)           :      314.000107039786 electrons
E(X)               :     -592.547943510340 Eh       
E(C)               :      -13.651724626509 Eh       
E(XC)              :     -606.199668136849 Eh       
DFET-embed. en.    :        0.000000000000 Eh       
CPCM Solvation Model Properties:
Surface-charge          :           -0.16244547
Charge-correction       :           -0.00249725 Eh              -0.06795 eV
Free-energy (cav+disp)  :  This term is not implemented in the current solvation scheme

---------------
SCF CONVERGENCE
---------------

  Last Energy change         ...    6.0183e-08  Tolerance :   1.0000e-08
  Last MAX-Density change    ...    3.1745e-05  Tolerance :   1.0000e-07
  Last RMS-Density change    ...    1.5360e-07  Tolerance :   5.0000e-09
  Last DIIS Error            ...    3.6761e-07  Tolerance :   5.0000e-07

             **** THE GBW FILE WAS UPDATED (1_M0001.gbw) ****
             **** DENSITY 1_M0001.scfp WAS UPDATED ****
             **** ENERGY FILE WAS UPDATED (1_M0001.en.tmp) ****
             **** THE GBW FILE WAS UPDATED (1_M0001.gbw) ****
             **** DENSITY 1_M0001.scfp WAS UPDATED ****
----------------
ORBITAL ENERGIES
----------------

  NO   OCC          E(Eh)            E(eV) 
   0   2.0000    -321.475132     -8747.7831 
   1   2.0000    -321.475126     -8747.7829 
   2   2.0000    -321.474309     -8747.7607 
   3   2.0000    -321.474250     -8747.7591 
   4   2.0000    -321.474234     -8747.7586 
   5   2.0000    -321.474134     -8747.7559 
   6   2.0000    -321.473867     -8747.7487 
   7   2.0000    -321.472700     -8747.7169 
   8   2.0000     -38.240766     -1040.5841 
   9   2.0000     -38.240253     -1040.5702 
  10   2.0000     -38.240128     -1040.5668 
  11   2.0000     -38.239881     -1040.5601 
  12   2.0000     -38.239869     -1040.5597 
  13   2.0000     -38.239308     -1040.5445 
  14   2.0000     -38.239008     -1040.5363 
  15   2.0000     -38.238457     -1040.5213 
  16   2.0000     -33.531865      -912.4484 
  17   2.0000     -33.531722      -912.4445 
  18   2.0000     -33.531571      -912.4404 
  19   2.0000     -33.531314      -912.4334 
  20   2.0000     -33.531235      -912.4313 
  21   2.0000     -33.531192      -912.4301 
  22   2.0000     -33.531136      -912.4286 
  23   2.0000     -33.531111      -912.4279 
  24   2.0000     -33.531017      -912.4254 
  25   2.0000     -33.531012      -912.4252 
  26   2.0000     -33.531009      -912.4251 
  27   2.0000     -33.530965      -912.4240 
  28   2.0000     -33.530955      -912.4237 
  29   2.0000     -33.530842      -912.4206 
  30   2.0000     -33.530833      -912.4203 
  31   2.0000     -33.530386      -912.4082 
  32   2.0000     -33.530353      -912.4073 
  33   2.0000     -33.530332      -912.4067 
  34   2.0000     -33.530173      -912.4024 
  35   2.0000     -33.530006      -912.3978 
  36   2.0000     -33.529951      -912.3964 
  37   2.0000     -33.529634      -912.3877 
  38   2.0000     -33.529479      -912.3835 
  39   2.0000     -33.529251      -912.3773 
  40   2.0000     -18.767942      -510.7017 
  41   2.0000     -18.672084      -508.0932 
  42   2.0000     -14.097324      -383.6077 
  43   2.0000      -9.944479      -270.6030 
  44   2.0000      -9.924931      -270.0711 
  45   2.0000      -9.909108      -269.6405 
  46   2.0000      -9.897153      -269.3152 
  47   2.0000      -9.884660      -268.9753 
  48   2.0000      -9.878139      -268.7978 
  49   2.0000      -9.873736      -268.6780 
  50   2.0000      -9.872095      -268.6334 
  51   2.0000      -4.070240      -110.7568 
  52   2.0000      -4.070191      -110.7555 
  53   2.0000      -4.070185      -110.7554 
  54   2.0000      -4.069949      -110.7489 
  55   2.0000      -4.069833      -110.7458 
  56   2.0000      -4.069461      -110.7357 
  57   2.0000      -4.069098      -110.7258 
  58   2.0000      -4.068562      -110.7112 
  59   2.0000      -2.606624       -70.9298 
  60   2.0000      -2.606500       -70.9265 
  61   2.0000      -2.606399       -70.9237 
  62   2.0000      -2.605728       -70.9055 
  63   2.0000      -2.605584       -70.9015 
  64   2.0000      -2.605421       -70.8971 
  65   2.0000      -2.605254       -70.8926 
  66   2.0000      -2.605180       -70.8906 
  67   2.0000      -2.605165       -70.8901 
  68   2.0000      -2.605053       -70.8871 
  69   2.0000      -2.604947       -70.8842 
  70   2.0000      -2.604897       -70.8829 
  71   2.0000      -2.604875       -70.8822 
  72   2.0000      -2.604530       -70.8729 
  73   2.0000      -2.604516       -70.8725 
  74   2.0000      -2.604466       -70.8711 
  75   2.0000      -2.604265       -70.8656 
  76   2.0000      -2.604138       -70.8622 
  77   2.0000      -2.604080       -70.8606 
  78   2.0000      -2.603661       -70.8492 
  79   2.0000      -2.602820       -70.8263 
  80   2.0000      -2.602633       -70.8213 
  81   2.0000      -2.602520       -70.8182 
  82   2.0000      -2.599840       -70.7452 
  83   2.0000      -0.972132       -26.4531 
  84   2.0000      -0.927136       -25.2286 
  85   2.0000      -0.796490       -21.6736 
  86   2.0000      -0.757271       -20.6064 
  87   2.0000      -0.707620       -19.2553 
  88   2.0000      -0.660160       -17.9639 
  89   2.0000      -0.645711       -17.5707 
  90   2.0000      -0.587863       -15.9966 
  91   2.0000      -0.547951       -14.9105 
  92   2.0000      -0.534059       -14.5325 
  93   2.0000      -0.526129       -14.3167 
  94   2.0000      -0.511040       -13.9061 
  95   2.0000      -0.477672       -12.9981 
  96   2.0000      -0.456378       -12.4187 
  97   2.0000      -0.418155       -11.3786 
  98   2.0000      -0.407275       -11.0825 
  99   2.0000      -0.387422       -10.5423 
 100   2.0000      -0.372666       -10.1408 
 101   2.0000      -0.369659       -10.0589 
 102   2.0000      -0.356131        -9.6908 
 103   2.0000      -0.336156        -9.1473 
 104   2.0000      -0.330017        -8.9802 
 105   2.0000      -0.314567        -8.5598 
 106   2.0000      -0.298086        -8.1113 
 107   2.0000      -0.288744        -7.8571 
 108   2.0000      -0.278133        -7.5684 
 109   2.0000      -0.269029        -7.3207 
 110   2.0000      -0.239133        -6.5071 
 111   2.0000      -0.219075        -5.9613 
 112   2.0000      -0.210666        -5.7325 
 113   2.0000      -0.209945        -5.7129 
 114   2.0000      -0.204251        -5.5580 
 115   2.0000      -0.199223        -5.4211 
 116   2.0000      -0.198930        -5.4132 
 117   2.0000      -0.196920        -5.3585 
 118   2.0000      -0.196902        -5.3580 
 119   2.0000      -0.196775        -5.3545 
 120   2.0000      -0.194930        -5.3043 
 121   2.0000      -0.194368        -5.2890 
 122   2.0000      -0.193397        -5.2626 
 123   2.0000      -0.193101        -5.2545 
 124   2.0000      -0.188561        -5.1310 
 125   2.0000      -0.185151        -5.0382 
 126   2.0000      -0.184753        -5.0274 
 127   2.0000      -0.184552        -5.0219 
 128   2.0000      -0.182991        -4.9794 
 129   2.0000      -0.182655        -4.9703 
 130   2.0000      -0.179926        -4.8960 
 131   2.0000      -0.179690        -4.8896 
 132   2.0000      -0.178862        -4.8671 
 133   2.0000      -0.176199        -4.7946 
 134   2.0000      -0.174332        -4.7438 
 135   2.0000      -0.173881        -4.7315 
 136   2.0000      -0.173685        -4.7262 
 137   2.0000      -0.173199        -4.7130 
 138   2.0000      -0.172539        -4.6950 
 139   2.0000      -0.171382        -4.6635 
 140   2.0000      -0.170088        -4.6283 
 141   2.0000      -0.168584        -4.5874 
 142   2.0000      -0.168009        -4.5718 
 143   2.0000      -0.167239        -4.5508 
 144   2.0000      -0.166618        -4.5339 
 145   2.0000      -0.166333        -4.5262 
 146   2.0000      -0.166090        -4.5195 
 147   2.0000      -0.165806        -4.5118 
 148   2.0000      -0.164346        -4.4721 
 149   2.0000      -0.164315        -4.4712 
 150   2.0000      -0.163791        -4.4570 
 151   2.0000      -0.162725        -4.4280 
 152   2.0000      -0.161192        -4.3863 
 153   2.0000      -0.152001        -4.1362 
 154   2.0000      -0.150564        -4.0971 
 155   2.0000      -0.141017        -3.8373 
 156   2.0000      -0.140464        -3.8222 
 157   0.0000      -0.086002        -2.3402 
 158   0.0000      -0.083495        -2.2720 
 159   0.0000      -0.081007        -2.2043 
 160   0.0000      -0.066759        -1.8166 
 161   0.0000      -0.041231        -1.1220 
 162   0.0000      -0.038589        -1.0501 
 163   0.0000      -0.032966        -0.8970 
 164   0.0000      -0.009007        -0.2451 
 165   0.0000      -0.002249        -0.0612 
 166   0.0000      -0.000368        -0.0100 
 167   0.0000       0.005663         0.1541 
 168   0.0000       0.005887         0.1602 
 169   0.0000       0.013479         0.3668 
 170   0.0000       0.024857         0.6764 
 171   0.0000       0.029061         0.7908 
 172   0.0000       0.030312         0.8248 
 173   0.0000       0.035904         0.9770 
 174   0.0000       0.041743         1.1359 
 175   0.0000       0.044441         1.2093 
 176   0.0000       0.048332         1.3152 
 177   0.0000       0.056329         1.5328 
 178   0.0000       0.061120         1.6632 
 179   0.0000       0.073758         2.0071 
 180   0.0000       0.077305         2.1036 
 181   0.0000       0.085820         2.3353 
 182   0.0000       0.086038         2.3412 
 183   0.0000       0.093883         2.5547 
 184   0.0000       0.101185         2.7534 
 185   0.0000       0.104537         2.8446 
 186   0.0000       0.105875         2.8810 
 187   0.0000       0.108172         2.9435 
 188   0.0000       0.111346         3.0299 
 189   0.0000       0.115684         3.1479 
 190   0.0000       0.121170         3.2972 
 191   0.0000       0.123466         3.3597 
 192   0.0000       0.124216         3.3801 
 193   0.0000       0.126865         3.4522 
 194   0.0000       0.132914         3.6168 
 195   0.0000       0.134508         3.6602 
 196   0.0000       0.140150         3.8137 
 197   0.0000       0.141703         3.8559 
 198   0.0000       0.146141         3.9767 
 199   0.0000       0.158843         4.3223 
 200   0.0000       0.165536         4.5045 
 201   0.0000       0.169235         4.6051 
 202   0.0000       0.171661         4.6711 
 203   0.0000       0.175458         4.7744 
 204   0.0000       0.178885         4.8677 
 205   0.0000       0.183079         4.9818 
 206   0.0000       0.189403         5.1539 
 207   0.0000       0.191243         5.2040 
 208   0.0000       0.199276         5.4226 
 209   0.0000       0.201068         5.4713 
 210   0.0000       0.204424         5.5626 
 211   0.0000       0.204646         5.5687 
 212   0.0000       0.207028         5.6335 
 213   0.0000       0.212487         5.7821 
 214   0.0000       0.216910         5.9024 
 215   0.0000       0.221756         6.0343 
 216   0.0000       0.222935         6.0664 
 217   0.0000       0.228110         6.2072 
 218   0.0000       0.228806         6.2261 
 219   0.0000       0.232520         6.3272 
 220   0.0000       0.236349         6.4314 
 221   0.0000       0.240534         6.5453 
 222   0.0000       0.247723         6.7409 
 223   0.0000       0.248438         6.7603 
 224   0.0000       0.250463         6.8154 
 225   0.0000       0.251325         6.8389 
 226   0.0000       0.254169         6.9163 
 227   0.0000       0.265751         7.2314 
 228   0.0000       0.266993         7.2652 
 229   0.0000       0.273607         7.4452 
 230   0.0000       0.274807         7.4779 
 231   0.0000       0.277851         7.5607 
 232   0.0000       0.285042         7.7564 
 233   0.0000       0.286487         7.7957 
 234   0.0000       0.287209         7.8154 
 235   0.0000       0.292902         7.9703 
 236   0.0000       0.297493         8.0952 
 237   0.0000       0.302135         8.2215 
 238   0.0000       0.304330         8.2813 
 239   0.0000       0.312856         8.5132 
 240   0.0000       0.314975         8.5709 
 241   0.0000       0.317510         8.6399 
 242   0.0000       0.319912         8.7052 
 243   0.0000       0.327443         8.9102 
 244   0.0000       0.329395         8.9633 
 245   0.0000       0.332203         9.0397 
 246   0.0000       0.334422         9.1001 
 247   0.0000       0.337253         9.1771 
 248   0.0000       0.341094         9.2816 
 249   0.0000       0.348019         9.4701 
 250   0.0000       0.350333         9.5330 
 251   0.0000       0.351696         9.5701 
 252   0.0000       0.356192         9.6925 
 253   0.0000       0.365124         9.9355 
 254   0.0000       0.370759        10.0889 
 255   0.0000       0.373602        10.1662 
 256   0.0000       0.377540        10.2734 
 257   0.0000       0.379559        10.3283 
 258   0.0000       0.380887        10.3645 
 259   0.0000       0.383210        10.4277 
 260   0.0000       0.384672        10.4675 
 261   0.0000       0.389803        10.6071 
 262   0.0000       0.391716        10.6591 
 263   0.0000       0.394082        10.7235 
 264   0.0000       0.395055        10.7500 
 265   0.0000       0.397078        10.8050 
 266   0.0000       0.397434        10.8147 
 267   0.0000       0.399401        10.8683 
 268   0.0000       0.402096        10.9416 
 269   0.0000       0.403855        10.9895 
 270   0.0000       0.406176        11.0526 
 271   0.0000       0.413855        11.2616 
 272   0.0000       0.416094        11.3225 
 273   0.0000       0.422319        11.4919 
 274   0.0000       0.424613        11.5543 
 275   0.0000       0.426663        11.6101 
 276   0.0000       0.433267        11.7898 
 277   0.0000       0.437918        11.9164 
 278   0.0000       0.441121        12.0035 
 279   0.0000       0.442769        12.0484 
 280   0.0000       0.446039        12.1373 
 281   0.0000       0.452005        12.2997 
 282   0.0000       0.455840        12.4040 
 283   0.0000       0.460195        12.5225 
 284   0.0000       0.462116        12.5748 
 285   0.0000       0.464967        12.6524 
 286   0.0000       0.469945        12.7878 
 287   0.0000       0.482309        13.1243 
 288   0.0000       0.494940        13.4680 
 289   0.0000       0.502658        13.6780 
 290   0.0000       0.510497        13.8913 
 291   0.0000       0.521053        14.1786 
 292   0.0000       0.528131        14.3712 
 293   0.0000       0.538662        14.6577 
 294   0.0000       0.547966        14.9109 
 295   0.0000       0.559468        15.2239 
 296   0.0000       0.573974        15.6186 
 297   0.0000       0.582103        15.8398 
 298   0.0000       0.592464        16.1218 
 299   0.0000       0.599231        16.3059 
 300   0.0000       0.619745        16.8641 
 301   0.0000       0.633867        17.2484 
 302   0.0000       0.639573        17.4037 
 303   0.0000       0.655147        17.8274 
 304   0.0000       0.660005        17.9597 
 305   0.0000       0.672329        18.2950 
 306   0.0000       0.687890        18.7184 
 307   0.0000       0.701731        19.0951 
 308   0.0000       0.718552        19.5528 
 309   0.0000       0.731214        19.8974 
 310   0.0000       0.733837        19.9687 
 311   0.0000       0.738032        20.0829 
 312   0.0000       0.741391        20.1743 
 313   0.0000       0.746358        20.3094 
 314   0.0000       0.750883        20.4326 
 315   0.0000       0.758863        20.6497 
 316   0.0000       0.767825        20.8936 
 317   0.0000       0.771270        20.9873 
 318   0.0000       0.773947        21.0602 
 319   0.0000       0.775748        21.1092 
 320   0.0000       0.800614        21.7858 
 321   0.0000       0.804271        21.8853 
 322   0.0000       0.811430        22.0801 
 323   0.0000       0.817852        22.2549 
 324   0.0000       0.827098        22.5065 
 325   0.0000       0.829585        22.5742 
 326   0.0000       0.831837        22.6354 
 327   0.0000       0.842118        22.9152 
 328   0.0000       0.843919        22.9642 
 329   0.0000       0.846872        23.0446 
 330   0.0000       0.856694        23.3118 
 331   0.0000       0.864950        23.5365 
 332   0.0000       0.870558        23.6891 
 333   0.0000       0.876234        23.8435 
 334   0.0000       0.878669        23.9098 
 335   0.0000       0.886261        24.1164 
 336   0.0000       0.888098        24.1664 
 337   0.0000       0.906200        24.6590 
 338   0.0000       0.914037        24.8722 
 339   0.0000       0.920135        25.0381 
 340   0.0000       0.934868        25.4391 
 341   0.0000       0.935799        25.4644 
 342   0.0000       0.937461        25.5096 
 343   0.0000       0.950477        25.8638 
 344   0.0000       0.952462        25.9178 
 345   0.0000       0.958734        26.0885 
 346   0.0000       0.963085        26.2069 
 347   0.0000       0.967916        26.3383 
 348   0.0000       0.969833        26.3905 
 349   0.0000       0.974553        26.5189 
 350   0.0000       0.977998        26.6127 
 351   0.0000       0.999904        27.2088 
 352   0.0000       1.012747        27.5583 
 353   0.0000       1.013725        27.5849 
 354   0.0000       1.038379        28.2557 
 355   0.0000       1.041133        28.3307 
 356   0.0000       1.044698        28.4277 
 357   0.0000       1.046162        28.4675 
 358   0.0000       1.048764        28.5383 
 359   0.0000       1.060853        28.8673 
 360   0.0000       1.074284        29.2327 
 361   0.0000       1.087675        29.5971 
 362   0.0000       1.089707        29.6524 
 363   0.0000       1.102213        29.9928 
 364   0.0000       1.105819        30.0909 
 365   0.0000       1.107381        30.1334 
 366   0.0000       1.110086        30.2070 
 367   0.0000       1.113145        30.2902 
 368   0.0000       1.116571        30.3834 
 369   0.0000       1.124324        30.5944 
 370   0.0000       1.135294        30.8929 
 371   0.0000       1.138796        30.9882 
 372   0.0000       1.143203        31.1081 
 373   0.0000       1.148907        31.2634 
 374   0.0000       1.161028        31.5932 
 375   0.0000       1.165610        31.7178 
 376   0.0000       1.175163        31.9778 
 377   0.0000       1.177496        32.0413 
 378   0.0000       1.190055        32.3830 
 379   0.0000       1.199087        32.6288 
 380   0.0000       1.201586        32.6968 
 381   0.0000       1.212394        32.9909 
 382   0.0000       1.213189        33.0126 
 383   0.0000       1.220634        33.2151 
 384   0.0000       1.238768        33.7086 
 385   0.0000       1.253274        34.1033 
 386   0.0000       1.271522        34.5999 
 387   0.0000       1.274757        34.6879 
 388   0.0000       1.285467        34.9793 
 389   0.0000       1.300138        35.3785 
 390   0.0000       1.305639        35.5283 
 391   0.0000       1.326291        36.0902 
 392   0.0000       1.352431        36.8015 
 393   0.0000       1.381293        37.5869 
 394   0.0000       1.392022        37.8788 
 395   0.0000       1.403816        38.1998 
 396   0.0000       1.425765        38.7970 
 397   0.0000       1.435994        39.0754 
 398   0.0000       1.453857        39.5614 
 399   0.0000       1.473366        40.0923 
 400   0.0000       1.476218        40.1699 
 401   0.0000       1.489534        40.5323 
 402   0.0000       1.499591        40.8059 
 403   0.0000       1.506623        40.9973 
 404   0.0000       1.523518        41.4570 
 405   0.0000       1.543790        42.0087 
 406   0.0000       1.557795        42.3897 
 407   0.0000       1.564023        42.5592 
 408   0.0000       1.579484        42.9800 
 409   0.0000       1.593725        43.3675 
 410   0.0000       1.610921        43.8354 
 411   0.0000       1.623397        44.1749 
 412   0.0000       1.634789        44.4849 
 413   0.0000       1.649413        44.8828 
 414   0.0000       1.671415        45.4815 
 415   0.0000       1.681326        45.7512 
 416   0.0000       1.700230        46.2656 
 417   0.0000       1.709026        46.5050 
 418   0.0000       1.727133        46.9977 
 419   0.0000       1.732386        47.1406 
 420   0.0000       1.751416        47.6584 
 421   0.0000       1.758107        47.8405 
 422   0.0000       1.775274        48.3077 
 423   0.0000       1.788451        48.6662 
 424   0.0000       1.794841        48.8401 
 425   0.0000       1.816089        49.4183 
 426   0.0000       1.825421        49.6722 
 427   0.0000       1.836780        49.9813 
 428   0.0000       1.837269        49.9946 
 429   0.0000       1.871686        50.9312 
 430   0.0000       1.888147        51.3791 
 431   0.0000       1.897194        51.6253 
 432   0.0000       1.912888        52.0523 
 433   0.0000       1.927627        52.4534 
 434   0.0000       1.948999        53.0350 
 435   0.0000       1.959488        53.3204 
 436   0.0000       1.981356        53.9154 
 437   0.0000       2.021671        55.0125 
 438   0.0000       2.053065        55.8668 
 439   0.0000       2.059239        56.0348 
 440   0.0000       2.066783        56.2400 
 441   0.0000       2.087582        56.8060 
 442   0.0000       2.105756        57.3005 
 443   0.0000       2.109604        57.4052 
 444   0.0000       2.123000        57.7698 
 445   0.0000       2.134350        58.0786 
 446   0.0000       2.135892        58.1206 
 447   0.0000       2.151078        58.5338 
 448   0.0000       2.154716        58.6328 
 449   0.0000       2.161876        58.8276 
 450   0.0000       2.167444        58.9792 
 451   0.0000       2.168771        59.0153 
 452   0.0000       2.186730        59.5039 
 453   0.0000       2.197650        59.8011 
 454   0.0000       2.208332        60.0918 
 455   0.0000       2.211745        60.1846 
 456   0.0000       2.213659        60.2367 
 457   0.0000       2.222872        60.4874 
 458   0.0000       2.253239        61.3137 
 459   0.0000       2.259143        61.4744 
 460   0.0000       2.265124        61.6372 
 461   0.0000       2.268267        61.7227 
 462   0.0000       2.282984        62.1232 
 463   0.0000       2.293470        62.4085 
 464   0.0000       2.306782        62.7707 
 465   0.0000       2.314307        62.9755 
 466   0.0000       2.315021        62.9949 
 467   0.0000       2.318892        63.1002 
 468   0.0000       2.327661        63.3389 
 469   0.0000       2.338418        63.6316 
 470   0.0000       2.339396        63.6582 
 471   0.0000       2.340393        63.6853 
 472   0.0000       2.344751        63.8039 
 473   0.0000       2.368461        64.4491 
 474   0.0000       2.377634        64.6987 
 475   0.0000       2.388813        65.0029 
 476   0.0000       2.389988        65.0349 
 477   0.0000       2.394820        65.1664 
 478   0.0000       2.407551        65.5128 
 479   0.0000       2.428455        66.0816 
 480   0.0000       2.432248        66.1848 
 481   0.0000       2.445100        66.5346 
 482   0.0000       2.453740        66.7697 
 483   0.0000       2.462772        67.0154 
 484   0.0000       2.475550        67.3631 
 485   0.0000       2.490104        67.7592 
 486   0.0000       2.499843        68.0242 
 487   0.0000       2.507649        68.2366 
 488   0.0000       2.526306        68.7443 
 489   0.0000       2.534274        68.9611 
 490   0.0000       2.536084        69.0104 
 491   0.0000       2.545509        69.2668 
 492   0.0000       2.547339        69.3166 
 493   0.0000       2.554983        69.5246 
 494   0.0000       2.570003        69.9333 
 495   0.0000       2.578855        70.1742 
 496   0.0000       2.592653        70.5497 
 497   0.0000       2.600563        70.7649 
 498   0.0000       2.608749        70.9877 
 499   0.0000       2.627782        71.5056 
 500   0.0000       2.633836        71.6703 
 501   0.0000       2.647017        72.0290 
 502   0.0000       2.669005        72.6273 
 503   0.0000       2.679073        72.9013 
 504   0.0000       2.697758        73.4097 
 505   0.0000       2.712987        73.8241 
 506   0.0000       2.724121        74.1271 
 507   0.0000       2.734313        74.4044 
 508   0.0000       2.745935        74.7207 
 509   0.0000       2.759042        75.0773 
 510   0.0000       2.773706        75.4764 
 511   0.0000       2.796370        76.0931 
 512   0.0000       2.803627        76.2906 
 513   0.0000       2.809955        76.4628 
 514   0.0000       2.821168        76.7679 
 515   0.0000       2.830887        77.0324 
 516   0.0000       2.845480        77.4295 
 517   0.0000       2.852352        77.6165 
 518   0.0000       2.870528        78.1110 
 519   0.0000       2.888865        78.6100 
 520   0.0000       2.895795        78.7986 
 521   0.0000       2.914540        79.3087 
 522   0.0000       2.929033        79.7030 
 523   0.0000       2.952676        80.3464 
 524   0.0000       2.958321        80.5000 
 525   0.0000       2.992584        81.4324 
 526   0.0000       3.000649        81.6518 
 527   0.0000       3.016469        82.0823 
 528   0.0000       3.021785        82.2269 
 529   0.0000       3.031285        82.4855 
 530   0.0000       3.051829        83.0445 
 531   0.0000       3.053087        83.0787 
 532   0.0000       3.061812        83.3161 
 533   0.0000       3.088360        84.0385 
 534   0.0000       3.104468        84.4769 
 535   0.0000       3.116946        84.8164 
 536   0.0000       3.126734        85.0828 
 537   0.0000       3.134761        85.3012 
 538   0.0000       3.140827        85.4662 
 539   0.0000       3.158037        85.9346 
 540   0.0000       3.168821        86.2280 
 541   0.0000       3.171434        86.2991 
 542   0.0000       3.180737        86.5522 
 543   0.0000       3.188196        86.7552 
 544   0.0000       3.204794        87.2069 
 545   0.0000       3.224830        87.7521 
 546   0.0000       3.228420        87.8498 
 547   0.0000       3.230804        87.9146 
 548   0.0000       3.234897        88.0260 
 549   0.0000       3.242231        88.2256 
 550   0.0000       3.247292        88.3633 
 551   0.0000       3.251350        88.4737 
 552   0.0000       3.261675        88.7547 
 553   0.0000       3.264551        88.8330 
[...]
     31      -0.067608   0.006498  -0.000033   0.000063   0.000019   0.000017
     32       0.008537  -0.000486  -0.000015   0.000001  -0.000007  -0.000079
     33      -0.010223   0.000817   0.000014  -0.000032  -0.000011   0.000524
     34      -0.011594   0.001813  -0.000001   0.000009  -0.000000  -0.000210
     35      -0.001817   0.000131  -0.000003   0.000003   0.000005   0.000101
     36      -0.000735   0.000385   0.000014   0.000043   0.000018  -0.000747
     37       0.001299   0.000277   0.000031   0.000004  -0.000000   0.000716
     38      -0.000147   0.000084   0.000003   0.000011   0.000004  -0.000134
     39       0.000311  -0.000208  -0.000012  -0.000042  -0.000020   0.000381
     40      -0.000097  -0.000031  -0.000006  -0.000005  -0.000002  -0.000340
     41       0.000060  -0.000040  -0.000002  -0.000011  -0.000005   0.000018
     42      -0.000488  -0.000188  -0.000052  -0.000247  -0.000200  -0.971530
     43       0.000276   0.001344  -0.000018  -0.000023  -0.000017  -0.105525
     44      -0.000103  -0.000032   0.000008  -0.000066  -0.000054  -0.202825
     45       0.032395   0.370520  -0.000293   0.000144  -0.000086   0.000072
     46       0.078269   0.916035  -0.001062   0.000613  -0.000127   0.000189
     47       0.008258   0.092814  -0.000260   0.000165   0.000109   0.000021
     48      -0.002299   0.007194   0.000614   0.000223   0.000854  -0.000142
     49      -0.002342   0.010786   0.001937   0.000344   0.001903  -0.000159
     50       0.000571  -0.002835   0.000616  -0.000289   0.001055  -0.000012
     51      -0.005058   0.001843  -0.000222   0.000793  -0.000063   0.000008
     52       0.004036   0.000071  -0.000375  -0.000624  -0.000166   0.000031
     53       0.003473  -0.000591  -0.001939  -0.000766  -0.000002   0.000016
     54      -0.000557   0.000776   0.007140  -0.010230  -0.005589  -0.000124
     55       0.000119   0.000226  -0.001930   0.000739   0.000044  -0.000061
     56      -0.000507   0.000824  -0.002576   0.000694   0.001197  -0.000077
     57      -0.000304   0.000283  -0.000254  -0.000553  -0.002634   0.000016
     58      -0.000021   0.001463  -0.008933  -0.000013  -0.012106  -0.000100
     59      -0.000926  -0.000629  -0.001006  -0.000650   0.000092   0.000067
     60      -0.562200   0.046039  -0.000049   0.000072   0.000071   0.000078
     61       0.803662  -0.068678   0.000222  -0.000250  -0.000149  -0.000266
     62      -0.087798   0.006975  -0.000003   0.000016   0.000023   0.000066
     63       0.055442  -0.008578  -0.000071  -0.000053  -0.000029  -0.000349
     64       0.110338  -0.016536  -0.000087  -0.000087  -0.000037   0.000700
     65       0.007685  -0.001184   0.000010  -0.000019   0.000024  -0.000086
     66      -0.000010   0.000008   0.000001   0.000001   0.000001   0.000004
     67      -0.000002   0.000001  -0.000001   0.000000  -0.000000  -0.000005
     68      -0.000002   0.000002   0.000000   0.000000   0.000000   0.000000
     69       0.000000  -0.000000   0.000000  -0.000001   0.000000   0.000001
     70       0.000000  -0.000000   0.000001   0.000000  -0.000002   0.000002
     71      -0.000000   0.000000  -0.000000   0.000001  -0.000000   0.000001
     72       0.000001  -0.000003   0.000001  -0.000001   0.000000  -0.000000
     73       0.000000  -0.000001   0.000000  -0.000000   0.000000   0.000001
     74       0.000000   0.000002   0.000001   0.000001  -0.000002  -0.000004
     75       0.000000  -0.000000   0.000000   0.000000   0.000000   0.000002
     76       0.000000  -0.000003  -0.000000  -0.000001   0.000001   0.000008
     77       0.000000   0.000000   0.000000   0.000001  -0.000000  -0.000001
     78      -0.000000   0.000002  -0.000001   0.000000  -0.000000  -0.000006
     79       0.000000   0.000001   0.000000   0.000000  -0.000001   0.000000
     80      -0.000000  -0.000002  -0.000001  -0.000001   0.000002   0.000002
     81      -0.000000   0.000002  -0.000001   0.000001  -0.000000  -0.000006
     82       0.000000  -0.000002  -0.000001  -0.000001   0.000001   0.000004
     83      -0.000000  -0.000002  -0.000001  -0.000000   0.000001   0.000002
     84       0.000000   0.000001  -0.000001   0.000000  -0.000000  -0.000006
     85       0.000000  -0.000003   0.000001  -0.000001  -0.000000   0.000006
     86      -0.000000  -0.000001  -0.000001   0.000000   0.000001   0.000001
     87       0.000000  -0.000001   0.000000  -0.000001  -0.000000   0.000002
     88       0.000001  -0.000004   0.000001  -0.000001  -0.000000   0.000007
     89      -0.000000   0.000001   0.000000   0.000001  -0.000001  -0.000001


-----------
IR SPECTRUM
-----------

 Mode   freq       eps      Int      T**2         TX        TY        TZ
       cm**-1   L/(mol*cm) km/mol    a.u.
----------------------------------------------------------------------------
 15:      8.14   0.000042    0.21  0.001611  (-0.039751  0.005301  0.001618)
 16:     17.09   0.000196    0.99  0.003574  (-0.037475  0.008152  0.045857)
 17:     23.60   0.000317    1.60  0.004194  ( 0.048078  0.041939  0.011100)
 18:     26.13   0.000125    0.63  0.001493  ( 0.002502 -0.003699  0.038380)
 19:     36.62   0.000255    1.29  0.002173  ( 0.037183 -0.025179  0.012505)
 20:     40.60   0.000382    1.93  0.002937  ( 0.002054  0.012465  0.052697)
 21:     46.24   0.000115    0.58  0.000774  ( 0.009854  0.025957 -0.001641)
 22:     47.15   0.000177    0.90  0.001174  (-0.022901  0.022888 -0.011189)
 23:     50.52   0.000069    0.35  0.000426  ( 0.020589  0.000184  0.001565)
 24:     51.55   0.000072    0.37  0.000438  ( 0.014308  0.007999 -0.013012)
 25:     56.03   0.000072    0.36  0.000402  ( 0.004601 -0.016127 -0.010971)
 26:     56.55   0.000038    0.19  0.000209  ( 0.004481  0.007292 -0.011661)
 27:     57.97   0.000046    0.23  0.000245  ( 0.003857 -0.004821  0.014389)
 28:     60.46   0.000002    0.01  0.000011  ( 0.000541  0.003336 -0.000047)
 29:     63.63   0.000012    0.06  0.000059  (-0.004537 -0.002705  0.005601)
 30:     68.41   0.000481    2.43  0.002196  ( 0.022588 -0.014405  0.038447)
 31:     71.87   0.001372    6.93  0.005957  (-0.040457  0.003148  0.065652)
 32:     73.51   0.000776    3.92  0.003295  ( 0.038740  0.039319  0.015770)
 33:     76.93   0.000507    2.56  0.002055  ( 0.042234  0.007898  0.014472)
 34:    115.56   0.002924   14.78  0.007896  ( 0.037577  0.078247 -0.018999)
 35:    161.62   0.013694   69.20  0.026440  ( 0.049705  0.148007  0.045425)
 36:    196.59   0.000986    4.98  0.001566  ( 0.011767 -0.035557 -0.012758)
 37:    221.70   0.002542   12.85  0.003579  ( 0.026243 -0.044853  0.029632)
 38:    271.00   0.006957   35.16  0.008011  (-0.002271 -0.024021  0.086188)
 39:    330.03   0.006980   35.28  0.006600  (-0.061482 -0.014951 -0.050959)
 40:    369.44   0.026125  132.02  0.022067  ( 0.147217  0.011105  0.016470)
 41:    416.76   0.034924  176.49  0.026151  (-0.154917 -0.012911 -0.044550)
 42:    466.83   0.037877  191.42  0.025320  (-0.155814 -0.006337 -0.031650)
 43:    474.83   0.006243   31.55  0.004103  ( 0.051410  0.001239  0.038192)
 44:    537.11   0.030986  156.59  0.018003  ( 0.133042  0.012991  0.011560)
 45:    549.20   0.036989  186.93  0.021018  (-0.143208 -0.005707 -0.021833)
 46:    600.41   0.012603   63.69  0.006550  (-0.067880 -0.010798 -0.042731)
 47:    655.69   0.001983   10.02  0.000944  ( 0.022104  0.007324  0.020034)
 48:    692.58   0.002053   10.37  0.000925  (-0.026334  0.014855  0.003287)
 49:    762.45   0.009253   46.76  0.003787  ( 0.025776  0.011906 -0.054600)
 50:    776.74   0.005294   26.75  0.002127  (-0.025823 -0.006660 -0.037624)
 51:    809.62   0.004750   24.01  0.001831  ( 0.003451  0.015738 -0.039641)
 52:    837.97   0.002339   11.82  0.000871  ( 0.003357  0.014463  0.025507)
 53:    845.95   0.007129   36.02  0.002630  (-0.046758 -0.019241  0.008554)
 54:    887.00   0.033180  167.68  0.011673  (-0.030420  0.102960 -0.012134)
 55:    894.01   0.029627  149.72  0.010342  (-0.083801 -0.038987 -0.042416)
 56:    909.38   0.002563   12.95  0.000879  (-0.003371 -0.025883 -0.014076)
 57:    934.18   0.031707  160.23  0.010592  ( 0.088580  0.051049  0.011796)
 58:   1003.23   0.004626   23.38  0.001439  (-0.026680  0.008353  0.025639)
 59:   1035.80   0.000755    3.81  0.000227  ( 0.010854 -0.007641  0.007152)
 60:   1059.70   0.007990   40.38  0.002353  (-0.036387  0.012001 -0.029747)
 61:   1115.66   0.013901   70.25  0.003888  ( 0.035299 -0.050735  0.008265)
 62:   1140.46   0.002435   12.30  0.000666  ( 0.001183  0.025580  0.003236)
 63:   1168.17   0.005021   25.37  0.001341  ( 0.015912 -0.032699  0.004343)
 64:   1203.14   0.003919   19.80  0.001016  ( 0.007705 -0.025699  0.017224)
 65:   1255.02   0.003050   15.41  0.000758  (-0.003779  0.026180  0.007658)
 66:   1271.77   0.000911    4.60  0.000223  ( 0.014310 -0.002519  0.003510)
 67:   1316.25   0.006880   34.77  0.001631  ( 0.035756  0.018691 -0.001817)
 68:   1337.42   0.012885   65.12  0.003006  ( 0.029271  0.045266  0.010032)
 69:   1347.47   0.002931   14.81  0.000679  ( 0.016861  0.002748  0.019672)
 70:   1375.21   0.015041   76.01  0.003413  ( 0.042608 -0.039420  0.006617)
 71:   1413.35   0.005816   29.39  0.001284  (-0.007189  0.006580  0.034485)
 72:   1425.98   0.029945  151.33  0.006553  (-0.018935  0.051857  0.059207)
 73:   1449.62   0.005736   28.99  0.001235  ( 0.023604 -0.022378  0.013303)
 74:   1531.50   0.075299  380.53  0.015343  ( 0.103714 -0.063494  0.023559)
 75:   1554.05   0.011899   60.13  0.002389  ( 0.036480  0.005363  0.032091)
 76:   1562.16   0.011520   58.22  0.002301  ( 0.017503  0.031079 -0.032077)
 77:   1717.89   0.033883  171.23  0.006155  ( 0.074749 -0.016773  0.016922)
 78:   1747.71   0.015526   78.46  0.002772  ( 0.018510 -0.049257  0.001838)
 79:   2963.56   0.003908   19.75  0.000412  (-0.016946  0.006295 -0.009205)
 80:   2970.34   0.007027   35.51  0.000738  ( 0.025034  0.008625 -0.006102)
 81:   3008.04   0.003175   16.05  0.000329  (-0.017805  0.002884 -0.002011)
 82:   3020.99   0.004626   23.38  0.000478  ( 0.008933  0.019927  0.000963)
 83:   3022.82   0.002233   11.28  0.000231  ( 0.009546  0.011463  0.002829)
 84:   3112.94   0.006232   31.49  0.000625  ( 0.017422 -0.017677  0.002951)
 85:   3123.96   0.003961   20.02  0.000396  (-0.010944 -0.016535 -0.001568)
 86:   3554.46   0.008216   41.52  0.000721  ( 0.011806 -0.017610 -0.016488)
 87:   3623.91   0.035051  177.13  0.003018  (-0.039572 -0.000773 -0.038103)
 88:   3631.53   0.026644  134.65  0.002290  (-0.023800 -0.035666  0.021238)
 89:   3961.45   0.052854  267.10  0.004164  (-0.063125 -0.000272 -0.013369)

* The epsilon (eps) is given for a Dirac delta lineshape.
** The dipole moment derivative (T) already includes vibrational overlap.

The first frequency considered to be a vibration is 15
The total number of vibrations considered is 75


--------------------------
THERMOCHEMISTRY AT 298.15K
--------------------------

Temperature         ... 298.15 K
Pressure            ... 1.00 atm
Total Mass          ... 661.58 AMU

Throughout the following assumptions are being made:
  (1) The electronic state is orbitally nondegenerate
  (2) There are no thermally accessible electronically excited states
  (3) Hindered rotations indicated by low frequency modes are not
      treated as such but are treated as vibrations and this may
      cause some error
  (4) All equations used are the standard statistical mechanics
      equations for an ideal gas
  (5) All vibrations are strictly harmonic

freq.       8.14  E(vib)   ...       0.58 
freq.      17.09  E(vib)   ...       0.57 
freq.      23.60  E(vib)   ...       0.56 
freq.      26.13  E(vib)   ...       0.56 
freq.      36.62  E(vib)   ...       0.54 
freq.      40.60  E(vib)   ...       0.54 
freq.      46.24  E(vib)   ...       0.53 
freq.      47.15  E(vib)   ...       0.53 
freq.      50.52  E(vib)   ...       0.52 
freq.      51.55  E(vib)   ...       0.52 
freq.      56.03  E(vib)   ...       0.52 
freq.      56.55  E(vib)   ...       0.52 
freq.      57.97  E(vib)   ...       0.51 
freq.      60.46  E(vib)   ...       0.51 
freq.      63.63  E(vib)   ...       0.51 
freq.      68.41  E(vib)   ...       0.50 
freq.      71.87  E(vib)   ...       0.50 
freq.      73.51  E(vib)   ...       0.49 
freq.      76.93  E(vib)   ...       0.49 
freq.     115.56  E(vib)   ...       0.44 
freq.     161.62  E(vib)   ...       0.39 
freq.     196.59  E(vib)   ...       0.36 
freq.     221.70  E(vib)   ...       0.33 
freq.     271.00  E(vib)   ...       0.29 
freq.     330.03  E(vib)   ...       0.24 
freq.     369.44  E(vib)   ...       0.21 
freq.     416.76  E(vib)   ...       0.18 
freq.     466.83  E(vib)   ...       0.16 
freq.     474.83  E(vib)   ...       0.15 
freq.     537.11  E(vib)   ...       0.12 
freq.     549.20  E(vib)   ...       0.12 
freq.     600.41  E(vib)   ...       0.10 
freq.     655.69  E(vib)   ...       0.08 
freq.     692.58  E(vib)   ...       0.07 
freq.     762.45  E(vib)   ...       0.06 
freq.     776.74  E(vib)   ...       0.05 
freq.     809.62  E(vib)   ...       0.05 
freq.     837.97  E(vib)   ...       0.04 
freq.     845.95  E(vib)   ...       0.04 
freq.     887.00  E(vib)   ...       0.04 
freq.     894.01  E(vib)   ...       0.03 
freq.     909.38  E(vib)   ...       0.03 
freq.     934.18  E(vib)   ...       0.03 
freq.    1003.23  E(vib)   ...       0.02 
freq.    1035.80  E(vib)   ...       0.02 
freq.    1059.70  E(vib)   ...       0.02 
freq.    1115.66  E(vib)   ...       0.01 
freq.    1140.46  E(vib)   ...       0.01 
freq.    1168.17  E(vib)   ...       0.01 
freq.    1203.14  E(vib)   ...       0.01 
freq.    1255.02  E(vib)   ...       0.01 
freq.    1271.77  E(vib)   ...       0.01 
freq.    1316.25  E(vib)   ...       0.01 
freq.    1337.42  E(vib)   ...       0.01 
freq.    1347.47  E(vib)   ...       0.01 
freq.    1375.21  E(vib)   ...       0.01 
freq.    1413.35  E(vib)   ...       0.00 
freq.    1425.98  E(vib)   ...       0.00 
freq.    1449.62  E(vib)   ...       0.00 
freq.    1531.50  E(vib)   ...       0.00 
freq.    1554.05  E(vib)   ...       0.00 
freq.    1562.16  E(vib)   ...       0.00 
freq.    1717.89  E(vib)   ...       0.00 
freq.    1747.71  E(vib)   ...       0.00 
freq.    2963.56  E(vib)   ...       0.00 
freq.    2970.34  E(vib)   ...       0.00 
freq.    3008.04  E(vib)   ...       0.00 
freq.    3020.99  E(vib)   ...       0.00 
freq.    3022.82  E(vib)   ...       0.00 
freq.    3112.94  E(vib)   ...       0.00 
freq.    3123.96  E(vib)   ...       0.00 
freq.    3554.46  E(vib)   ...       0.00 
freq.    3623.91  E(vib)   ...       0.00 
freq.    3631.53  E(vib)   ...       0.00 
freq.    3961.45  E(vib)   ...       0.00 

------------
INNER ENERGY
------------

The inner energy is: U= E(el) + E(ZPE) + E(vib) + E(rot) + E(trans)
    E(el)   - is the total energy from the electronic structure calculation
              = E(kin-el) + E(nuc-el) + E(el-el) + E(nuc-nuc)
    E(ZPE)  - the the zero temperature vibrational energy from the frequency calculation
    E(vib)  - the the finite temperature correction to E(ZPE) due to population
              of excited vibrational states
    E(rot)  - is the rotational thermal energy
    E(trans)- is the translational thermal energy

Summary of contributions to the inner energy U:
Electronic energy                ... -13638.74511298 Eh
Zero point energy                ...      0.17923516 Eh     112.47 kcal/mol
Thermal vibrational correction   ...      0.02197125 Eh      13.79 kcal/mol
Thermal rotational correction    ...      0.00141627 Eh       0.89 kcal/mol
Thermal translational correction ...      0.00141627 Eh       0.89 kcal/mol
-----------------------------------------------------------------------
Total thermal energy                 -13638.54107402 Eh


Summary of corrections to the electronic energy:
(perhaps to be used in another calculation)
Total thermal correction                  0.02480380 Eh      15.56 kcal/mol
Non-thermal (ZPE) correction              0.17923516 Eh     112.47 kcal/mol
-----------------------------------------------------------------------
Total correction                          0.20403896 Eh     128.04 kcal/mol


--------
ENTHALPY
--------

The enthalpy is H = U + kB*T
                kB is Boltzmann's constant
Total free energy                 ... -13638.54107402 Eh 
Thermal Enthalpy correction       ...      0.00094421 Eh       0.59 kcal/mol
-----------------------------------------------------------------------
Total Enthalpy                    ... -13638.54012981 Eh


Note: Only C1 symmetry has been detected, increase convergence thresholds 
      if your molecule has a higher symmetry. Symmetry factor of 1.0 is   
      used for the rotational entropy correction. 
 

Note: Rotational entropy computed according to Herzberg 
Infrared and Raman Spectra, Chapter V,1, Van Nostrand Reinhold, 1945 
Point Group:  C1, Symmetry Number:   1  
Rotational constants in cm-1:     0.007711     0.001777     0.001672 

Vibrational entropy computed according to the QRRHO of S. Grimme
Chem.Eur.J. 2012 18 9955


-------
ENTROPY
-------

The entropy contributions are T*S = T*(S(el)+S(vib)+S(rot)+S(trans))
     S(el)   - electronic entropy
     S(vib)  - vibrational entropy
     S(rot)  - rotational entropy
     S(trans)- translational entropy
The entropies will be listed as multiplied by the temperature to get
units of energy

Electronic entropy                ...      0.00000000 Eh      0.00 kcal/mol
Vibrational entropy               ...      0.04377096 Eh     27.47 kcal/mol
Rotational entropy                ...      0.01781550 Eh     11.18 kcal/mol
Translational entropy             ...      0.02154723 Eh     13.52 kcal/mol
-----------------------------------------------------------------------
Final entropy term                ...      0.08313369 Eh     52.17 kcal/mol

In case the symmetry of your molecule has not been determined correctly
or in case you have a reason to use a different symmetry number we print 
out the resulting rotational entropy values for sn=1,12 :
 --------------------------------------------------------
|  sn= 1 | S(rot)=       0.01781550 Eh     11.18 kcal/mol|
|  sn= 2 | S(rot)=       0.01716104 Eh     10.77 kcal/mol|
|  sn= 3 | S(rot)=       0.01677821 Eh     10.53 kcal/mol|
|  sn= 4 | S(rot)=       0.01650659 Eh     10.36 kcal/mol|
|  sn= 5 | S(rot)=       0.01629590 Eh     10.23 kcal/mol|
|  sn= 6 | S(rot)=       0.01612375 Eh     10.12 kcal/mol|
|  sn= 7 | S(rot)=       0.01597821 Eh     10.03 kcal/mol|
|  sn= 8 | S(rot)=       0.01585213 Eh      9.95 kcal/mol|
|  sn= 9 | S(rot)=       0.01574092 Eh      9.88 kcal/mol|
|  sn=10 | S(rot)=       0.01564144 Eh      9.82 kcal/mol|
|  sn=11 | S(rot)=       0.01555145 Eh      9.76 kcal/mol|
|  sn=12 | S(rot)=       0.01546930 Eh      9.71 kcal/mol|
 --------------------------------------------------------


-------------------
GIBBS FREE ENERGY
-------------------

The Gibbs free energy is G = H - T*S

Total enthalpy                    ... -13638.54012981 Eh 
Total entropy correction          ...     -0.08313369 Eh    -52.17 kcal/mol
-----------------------------------------------------------------------
Final Gibbs free energy         ... -13638.62326350 Eh

For completeness - the Gibbs free energy minus the electronic energy
G-E(el)                           ...      0.12184948 Eh     76.46 kcal/mol



Timings for individual modules:

Sum of individual times         ...     4167.205 sec (=  69.453 min)
GTO integral calculation        ...        4.645 sec (=   0.077 min)   0.1 %
SCF iterations                  ...      184.028 sec (=   3.067 min)   4.4 %
SCF Gradient evaluation         ...       27.971 sec (=   0.466 min)   0.7 %
Numerical frequency calculation ...     3950.560 sec (=  65.843 min)  94.8 %



                             ****ORCA TERMINATED NORMALLY****
TOTAL RUN TIME: 0 days 5 hours 39 minutes 19 seconds 385 msec
