
                                 *****************
                                 * O   R   C   A *
                                 *****************

                                            #,                                       
                                            ###                                      
                                            ####                                     
                                            #####                                    
                                            ######                                   
                                           ########,                                 
                                     ,,################,,,,,                         
                               ,,#################################,,                 
                          ,,##########################################,,             
                       ,#########################################, ''#####,          
                    ,#############################################,,   '####,        
                  ,##################################################,,,,####,       
                ,###########''''           ''''###############################       
              ,#####''   ,,,,##########,,,,          '''####'''          '####       
            ,##' ,,,,###########################,,,                        '##       
           ' ,,###''''                  '''############,,,                           
         ,,##''                                '''############,,,,        ,,,,,,###''
      ,#''                                            '''#######################'''  
     '                                                          ''''####''''         
             ,#######,   #######,   ,#######,      ##                                
            ,#'     '#,  ##    ##  ,#'     '#,    #''#        ######   ,####,        
            ##       ##  ##   ,#'  ##            #'  '#       #        #'  '#        
            ##       ##  #######   ##           ,######,      #####,   #    #        
            '#,     ,#'  ##    ##  '#,     ,#' ,#      #,         ##   #,  ,#        
             '#######'   ##     ##  '#######'  #'      '#     #####' # '####'        



                  #######################################################
                  #                        -***-                        #
                  #          Department of theory and spectroscopy      #
                  #    Directorship and core code : Frank Neese         #
                  #        Max Planck Institute fuer Kohlenforschung    #
                  #                Kaiser Wilhelm Platz 1               #
                  #                 D-45470 Muelheim/Ruhr               #
                  #                      Germany                        #
                  #                                                     #
                  #                  All rights reserved                #
                  #                        -***-                        #
                  #######################################################


                         Program Version 5.0.1 -  RELEASE  -


 With contributions from (in alphabetic order):
   Daniel Aravena         : Magnetic Suceptibility
   Michael Atanasov       : Ab Initio Ligand Field Theory (pilot matlab implementation)
   Alexander A. Auer      : GIAO ZORA, VPT2 properties, NMR spectrum
   Ute Becker             : Parallelization
   Giovanni Bistoni       : ED, misc. LED, open-shell LED, HFLD
   Martin Brehm           : Molecular dynamics
   Dmytro Bykov           : SCF Hessian
   Vijay G. Chilkuri      : MRCI spin determinant printing, contributions to CSF-ICE
   Dipayan Datta          : RHF DLPNO-CCSD density
   Achintya Kumar Dutta   : EOM-CC, STEOM-CC
   Dmitry Ganyushin       : Spin-Orbit,Spin-Spin,Magnetic field MRCI
   Miquel Garcia          : C-PCM and meta-GGA Hessian, CC/C-PCM, Gaussian charge scheme
   Yang Guo               : DLPNO-NEVPT2, F12-NEVPT2, CIM, IAO-localization
   Andreas Hansen         : Spin unrestricted coupled pair/coupled cluster methods
   Benjamin Helmich-Paris : MC-RPA, TRAH-SCF, COSX integrals
   Lee Huntington         : MR-EOM, pCC
   Robert Izsak           : Overlap fitted RIJCOSX, COSX-SCS-MP3, EOM
   Marcus Kettner         : VPT2
   Christian Kollmar      : KDIIS, OOCD, Brueckner-CCSD(T), CCSD density, CASPT2, CASPT2-K
   Simone Kossmann        : Meta GGA functionals, TD-DFT gradient, OOMP2, MP2 Hessian
   Martin Krupicka        : Initial AUTO-CI
   Lucas Lang             : DCDCAS
   Marvin Lechner         : AUTO-CI (C++ implementation), FIC-MRCC
   Dagmar Lenk            : GEPOL surface, SMD
   Dimitrios Liakos       : Extrapolation schemes; Compound Job, initial MDCI parallelization
   Dimitrios Manganas     : Further ROCIS development; embedding schemes
   Dimitrios Pantazis     : SARC Basis sets
   Anastasios Papadopoulos: AUTO-CI, single reference methods and gradients
   Taras Petrenko         : DFT Hessian,TD-DFT gradient, ASA, ECA, R-Raman, ABS, FL, XAS/XES, NRVS
   Peter Pinski           : DLPNO-MP2, DLPNO-MP2 Gradient
   Christoph Reimann      : Effective Core Potentials
   Marius Retegan         : Local ZFS, SOC
   Christoph Riplinger    : Optimizer, TS searches, QM/MM, DLPNO-CCSD(T), (RO)-DLPNO pert. Triples
   Tobias Risthaus        : Range-separated hybrids, TD-DFT gradient, RPA, STAB
   Michael Roemelt        : Original ROCIS implementation
   Masaaki Saitow         : Open-shell DLPNO-CCSD energy and density
   Barbara Sandhoefer     : DKH picture change effects
   Avijit Sen             : IP-ROCIS
   Kantharuban Sivalingam : CASSCF convergence, NEVPT2, FIC-MRCI
   Bernardo de Souza      : ESD, SOC TD-DFT
   Georgi Stoychev        : AutoAux, RI-MP2 NMR, DLPNO-MP2 response
   Willem Van den Heuvel  : Paramagnetic NMR
   Boris Wezisla          : Elementary symmetry handling
   Frank Wennmohs         : Technical directorship


 We gratefully acknowledge several colleagues who have allowed us to
 interface, adapt or use parts of their codes:
   Stefan Grimme, W. Hujo, H. Kruse, P. Pracht,  : VdW corrections, initial TS optimization,
                  C. Bannwarth, S. Ehlert          DFT functionals, gCP, sTDA/sTD-DF
   Ed Valeev, F. Pavosevic, A. Kumar             : LibInt (2-el integral package), F12 methods
   Garnet Chan, S. Sharma, J. Yang, R. Olivares  : DMRG
   Ulf Ekstrom                                   : XCFun DFT Library
   Mihaly Kallay                                 : mrcc  (arbitrary order and MRCC methods)
   Jiri Pittner, Ondrej Demel                    : Mk-CCSD
   Frank Weinhold                                : gennbo (NPA and NBO analysis)
   Christopher J. Cramer and Donald G. Truhlar   : smd solvation model
   Lars Goerigk                                  : TD-DFT with DH, B97 family of functionals
   V. Asgeirsson, H. Jonsson                     : NEB implementation
   FAccTs GmbH                                   : IRC, NEB, NEB-TS, DLPNO-Multilevel, CI-OPT
                                                   MM, QMMM, 2- and 3-layer-ONIOM, Crystal-QMMM,
                                                   LR-CPCM, SF, NACMEs, symmetry and pop. for TD-DFT,
                                                   nearIR, NL-DFT gradient (VV10), updates on ESD,
                                                   ML-optimized integration grids
   S Lehtola, MJT Oliveira, MAL Marques          : LibXC Library
   Liviu Ungur et al                             : ANISO software


 Your calculation uses the libint2 library for the computation of 2-el integrals
 For citations please refer to: http://libint.valeyev.net

 Your ORCA version has been built with support for libXC version: 5.1.0
 For citations please refer to: https://tddft.org/programs/libxc/

 This ORCA versions uses:
   CBLAS   interface :  Fast vector & matrix operations
   LAPACKE interface :  Fast linear algebra routines
   SCALAPACK package :  Parallel linear algebra routines
   Shared memory     :  Shared parallel matrices
   BLAS/LAPACK       :  OpenBLAS 0.3.15  USE64BITINT DYNAMIC_ARCH NO_AFFINITY Haswell SINGLE_THREADED
        Core in use  :  Haswell
   Copyright (c) 2011-2014, The OpenBLAS Project


Your calculation utilizes the atom-pairwise dispersion correction
with the Becke-Johnson damping scheme (D3BJ)
Cite in your paper:
S.Grimme, S.Ehrlich, L.Goerigk, J Comput Chem, (2011), 32, 1456–1465 
S.Grimme, J.Antony, S.Ehrlich and H.Krieg, J.Chem.Phys., 132, (2010), 154104 
   

================================================================================

----- Orbital basis set information -----
Your calculation utilizes the basis: def2-TZVP
   F. Weigend and R. Ahlrichs, Phys. Chem. Chem. Phys. 7, 3297 (2005).

----- AuxJ basis set information -----
Your calculation utilizes the auxiliary basis: def2/J
   F. Weigend, Phys. Chem. Chem. Phys. 8, 1057 (2006).

================================================================================
                                        WARNINGS
                       Please study these warnings very carefully!
================================================================================


WARNING: Geometry Optimization
  ===> : Switching off AutoStart
         For restart on a previous wavefunction, please use MOREAD

INFO   : the flag for use of the SHARK integral package has been found!

Your calculation utilizes the atom-pairwise dispersion correction
with the Becke-Johnson damping scheme (D3BJ)
Cite in your paper:
S.Grimme, S.Ehrlich, L.Goerigk, J Comput Chem, (2011), 32, 1456–1465 
S.Grimme, J.Antony, S.Ehrlich and H.Krieg, J.Chem.Phys., 132, (2010), 154104 
   

================================================================================

----- Orbital basis set information -----
Your calculation utilizes the basis: def2-SVP
   F. Weigend and R. Ahlrichs, Phys. Chem. Chem. Phys. 7, 3297 (2005).

================================================================================
                                        WARNINGS
                       Please study these warnings very carefully!
================================================================================


INFO   : the flag for use of the SHARK integral package has been found!

Your calculation utilizes the atom-pairwise dispersion correction
with the Becke-Johnson damping scheme (D3BJ)
Cite in your paper:
S.Grimme, S.Ehrlich, L.Goerigk, J Comput Chem, (2011), 32, 1456–1465 
S.Grimme, J.Antony, S.Ehrlich and H.Krieg, J.Chem.Phys., 132, (2010), 154104 
   

================================================================================

----- Orbital basis set information -----
Your calculation utilizes the basis: def2-SVP
   F. Weigend and R. Ahlrichs, Phys. Chem. Chem. Phys. 7, 3297 (2005).

================================================================================
                                        WARNINGS
                       Please study these warnings very carefully!
================================================================================


INFO   : the flag for use of the SHARK integral package has been found!

Your calculation utilizes the atom-pairwise dispersion correction
with the Becke-Johnson damping scheme (D3BJ)
Cite in your paper:
S.Grimme, S.Ehrlich, L.Goerigk, J Comput Chem, (2011), 32, 1456–1465 
S.Grimme, J.Antony, S.Ehrlich and H.Krieg, J.Chem.Phys., 132, (2010), 154104 
   

================================================================================

----- Orbital basis set information -----
Your calculation utilizes the basis: def2-SVP
   F. Weigend and R. Ahlrichs, Phys. Chem. Chem. Phys. 7, 3297 (2005).

================================================================================
                                        WARNINGS
                       Please study these warnings very carefully!
================================================================================


INFO   : the flag for use of the SHARK integral package has been found!

Your calculation utilizes the atom-pairwise dispersion correction
with the Becke-Johnson damping scheme (D3BJ)
Cite in your paper:
S.Grimme, S.Ehrlich, L.Goerigk, J Comput Chem, (2011), 32, 1456–1465 
S.Grimme, J.Antony, S.Ehrlich and H.Krieg, J.Chem.Phys., 132, (2010), 154104 
   

================================================================================

----- Orbital basis set information -----
Your calculation utilizes the basis: def2-SVP
   F. Weigend and R. Ahlrichs, Phys. Chem. Chem. Phys. 7, 3297 (2005).

================================================================================
                                        WARNINGS
                       Please study these warnings very carefully!
================================================================================


INFO   : the flag for use of the SHARK integral package has been found!

================================================================================
                                       INPUT FILE
================================================================================
NAME = ex.inp
|  1> ! PBE D3 def2-TZVP opt 
|  2> 
|  3> %base "M0002"
|  4> %pal nprocs=8 end
|  5> %geom maxiter=75 end
|  6> * xyz -2 1
|  7> O       -2.031037     -2.062449     -0.049321
|  8> O       -3.307150      0.599768     -0.503427
|  9> N        2.925979      0.077175     -1.435707
| 10> C        2.153620      0.147371      0.963706
| 11> C        0.699293      0.250785      0.602187
| 12> C        3.015942     -0.544013     -0.105473
| 13> C       -0.084508     -0.900396      0.442535
| 14> C        0.094415      1.478147      0.401001
| 15> C       -1.458703     -0.912270      0.065928
| 16> C       -1.251647      1.527268      0.034471
| 17> C       -2.083157      0.389278     -0.155479
| 18> H        2.560882      1.148697      1.155720
| 19> H        2.243050     -0.399729      1.910689
| 20> H        2.747056     -1.602590     -0.194985
| 21> H        4.062616     -0.511037      0.216663
| 22> H        0.376102     -1.873851      0.608721
| 23> H        0.639013      2.405862      0.514153
| 24> H       -1.706353      2.504030     -0.122715
| 25> H        2.786392      1.080241     -1.306495
| 26> H        2.003359     -0.207406     -1.803065
| 27> *
| 28> 
| 29> $new_job
| 30> 
| 31> %base "M0001"
| 32> %pal nprocs=8 end
| 33> %geom maxiter=75 end
| 34> * xyz -2 1
| 35> O       -2.053517     -2.034373      0.185438
| 36> O       -3.299854      0.572811     -0.572818
| 37> N        2.860805     -0.833072     -1.237455
| 38> C        2.152337      0.220042      0.941851
| 39> C        0.697822      0.310851      0.581319
| 40> C        3.082832      0.258048     -0.280072
| 41> C       -0.098603     -0.842826      0.551432
| 42> C        0.112931      1.512149      0.227344
| 43> C       -1.470338     -0.883949      0.171908
| 44> C       -1.232297      1.533165     -0.145563
| 45> C       -2.078509      0.390321     -0.200609
| 46> H        2.404826      1.051022      1.612914
| 47> H        2.339631     -0.693917      1.520319
| 48> H        4.119799      0.198321      0.068402
| 49> H        2.980176      1.212058     -0.809753
| 50> H        0.351118     -1.796109      0.827513
| 51> H        0.673739      2.437076      0.225255
| 52> H       -1.673913      2.489310     -0.421814
| 53> H        1.923336     -0.670522     -1.640807
| 54> H        2.685580     -1.690041     -0.706467
| 55> *
| 56> 
| 57> $new_job
| 58> 
| 59> %base "M0003"
| 60> %pal nprocs=8 end
| 61> %geom maxiter=75 end
| 62> * xyz -2 1
| 63> O        2.114611     -2.026864      0.172957
| 64> O        3.292629      0.696394      0.521424
| 65> N       -3.095376      0.385734      1.278702
| 66> C       -2.126657     -0.018000     -1.001073
| 67> C       -0.676513      0.160651     -0.644025
| 68> C       -2.962669     -0.567884      0.165257
| 69> C        0.143654     -0.954433     -0.416033
| 70> C       -0.118767      1.415902     -0.489614
| 71> C        1.508733     -0.902964     -0.011849
| 72> C        1.218352      1.527451     -0.102381
| 73> C        2.084209      0.428309      0.158469
| 74> H       -2.554110      0.929990     -1.351901
| 75> H       -2.192610     -0.710250     -1.850145
| 76> H       -2.524436     -1.498260      0.544364
| 77> H       -3.968741     -0.808396     -0.194728
| 78> H       -0.282247     -1.949428     -0.542024
| 79> H       -0.697965      2.315911     -0.648574
| 80> H        1.635879      2.525772      0.018248
| 81> H       -2.148160      0.757196      1.442609
| 82> H       -3.279933     -0.153105      2.123681
| 83> *
| 84> 
| 85> $new_job
| 86> 
| 87> %base "M0006"
| 88> %pal nprocs=8 end
| 89> %geom maxiter=75 end
| 90> * xyz -2 1
| 91> O       -2.005938     -2.061962      0.225043
| 92> O       -3.326877      0.482115     -0.614452
| 93> N        3.035492     -1.020148     -0.980444
| 94> C        2.132501      0.350235      0.923363
| 95> C        0.669325      0.377497      0.576988
| 96> C        3.024104      0.295567     -0.327293
| 97> C       -0.091260     -0.799941      0.579212
| 98> C        0.045428      1.550263      0.190850
| 99> C       -1.458698     -0.894462      0.188445
|100> C       -1.297297      1.519725     -0.189749
|101> C       -2.104671      0.349258     -0.223967
|102> H        2.373400      1.255716      1.495247
|103> H        2.354637     -0.490875      1.592252
|104> H        4.055070      0.532204     -0.043029
|105> H        2.706982      1.054219     -1.052586
|106> H        0.387655     -1.729530      0.886964
|107> H        0.576366      2.492356      0.166125
|108> H       -1.767071      2.454022     -0.492627
|109> H        3.130695     -0.876369     -1.984446
|110> H        2.079749     -1.400785     -0.896615
|111> *
|112> 
|113> $new_job
|114> 
|115> %base "M0005"
|116> %pal nprocs=8 end
|117> %geom maxiter=75 end
|118> * xyz -2 1
|119> O        2.289029     -2.042674      0.054462
|120> O        3.516138      0.665485      0.348449
|121> N       -4.279682     -0.192325      0.379319
|122> C       -2.027849      0.017064     -0.649438
|123> C       -0.558856      0.176640     -0.393879
|124> C       -2.838915     -0.021300      0.651254
|125> C        0.269135     -0.948151     -0.273228
|126> C        0.017515      1.424686     -0.247608
|127> C        1.671806     -0.912385     -0.022880
|128> C        1.388411      1.520479     -0.000310
|129> C        2.271841      0.411664      0.121713
|130> H       -2.374330      0.841684     -1.286424
|131> H       -2.201129     -0.899018     -1.229379
|132> H       -2.700193      0.907177      1.216567
|133> H       -2.503115     -0.843239      1.293601
|134> H       -0.175601     -1.937490     -0.377355
|135> H       -0.567623      2.331489     -0.320954
|136> H        1.822526      2.512975      0.108810
|137> H       -4.388116     -1.083697     -0.104346
|138> H       -4.554502      0.521729     -0.292789
|139> *
|140> 
|141> 
|142> 
|143> 
|144>                          ****END OF INPUT****
================================================================================


                 $$$$$$$$$$$$$$$$$$$$$$$$$$$$$$$$$$$$$$$$$$$$$$ 
                 $ THERE ARE  5 JOBS TO BE PROCESSED THIS RUN $
                 $$$$$$$$$$$$$$$$$$$$$$$$$$$$$$$$$$$$$$$$$$$$$$ 




                 $$$$$$$$$$$$$$$$  JOB NUMBER  1 $$$$$$$$$$$$$$


                       *****************************
                       * Geometry Optimization Run *
                       *****************************

Geometry optimization settings:
Update method            Update   .... BFGS
Choice of coordinates    CoordSys .... Z-matrix Internals
Initial Hessian          InHess   .... Almoef's Model

Convergence Tolerances:
Energy Change            TolE     ....  5.0000e-06 Eh
Max. Gradient            TolMAXG  ....  3.0000e-04 Eh/bohr
RMS Gradient             TolRMSG  ....  1.0000e-04 Eh/bohr
Max. Displacement        TolMAXD  ....  4.0000e-03 bohr
RMS Displacement         TolRMSD  ....  2.0000e-03 bohr
Strict Convergence                ....  False
------------------------------------------------------------------------------
                        ORCA OPTIMIZATION COORDINATE SETUP
------------------------------------------------------------------------------

The optimization will be done in new redundant internal coordinates
Making redundant internal coordinates   ...  (new redundants) done
Evaluating the initial hessian          ...  (Almloef) done
Evaluating the coordinates              ...  done
Calculating the B-matrix                .... done
Calculating the G-matrix                .... done
Diagonalizing the G-matrix              .... done
Small eigenvalue found = 1.858e-02
The first mode is                       ....   44
The number of degrees of freedom        ....   54

    -----------------------------------------------------------------
                    Redundant Internal Coordinates


    -----------------------------------------------------------------
         Definition                    Initial Value    Approx d2E/dq
    -----------------------------------------------------------------
      1. B(C   4,C   3)                  1.5022         0.413818   
      2. B(C   5,N   2)                  1.4709         0.415753   
      3. B(C   5,C   3)                  1.5378         0.363054   
      4. B(C   6,C   4)                  1.4018         0.598285   
      5. B(C   7,C   4)                  1.3830         0.641002   
      6. B(C   8,C   6)                  1.4249         0.549582   
      7. B(C   8,O   0)                  1.2899         0.808405   
      8. B(C   9,C   7)                  1.3959         0.611317   
      9. B(C  10,C   9)                  1.4222         0.555194   
     10. B(C  10,C   8)                  1.4605         0.482279   
     11. B(C  10,O   1)                  1.2898         0.808667   
     12. B(H  11,C   3)                  1.0979         0.349799   
     13. B(H  12,C   3)                  1.0973         0.350556   
     14. B(H  13,C   5)                  1.0959         0.352438   
     15. B(H  14,C   5)                  1.0956         0.352740   
     16. B(H  15,C   6)                  1.0897         0.360529   
     17. B(H  16,C   7)                  1.0817         0.371267   
     18. B(H  17,C   9)                  1.0888         0.361664   
     19. B(H  18,N   2)                  1.0209         0.415660   
     20. B(H  19,N   2)                  1.0330         0.397595   
     21. A(H  18,N   2,H  19)          101.1602         0.297289   
     22. A(C   5,N   2,H  18)          107.9889         0.333116   
     23. A(C   5,N   2,H  19)          105.0635         0.330674   
     24. A(C   5,C   3,H  12)          109.2786         0.321385   
     25. A(C   4,C   3,H  12)          108.7189         0.328372   
     26. A(C   4,C   3,H  11)          109.7818         0.328255   
     27. A(C   5,C   3,H  11)          108.8831         0.321271   
     28. A(C   4,C   3,C   5)          113.9869         0.367969   
     29. A(H  11,C   3,H  12)          105.8763         0.288303   
     30. A(C   6,C   4,C   7)          117.8833         0.433883   
     31. A(C   3,C   4,C   7)          121.3012         0.406275   
     32. A(C   3,C   4,C   6)          120.8112         0.401361   
     33. A(C   3,C   5,H  14)          108.5269         0.321712   
     34. A(H  13,C   5,H  14)          106.7081         0.288923   
     35. A(N   2,C   5,H  14)          108.1572         0.326987   
     36. A(C   3,C   5,H  13)          110.7019         0.321667   
     37. A(N   2,C   5,H  13)          108.6072         0.326941   
     38. A(N   2,C   5,C   3)          113.8673         0.365966   
     39. A(C   8,C   6,H  15)          116.1371         0.345874   
     40. A(C   4,C   6,H  15)          118.6794         0.350858   
     41. A(C   4,C   6,C   8)          125.1823         0.422079   
     42. A(C   9,C   7,H  16)          118.8665         0.353893   
     43. A(C   4,C   7,H  16)          121.7160         0.356751   
     44. A(C   4,C   7,C   9)          119.4165         0.435570   
     45. A(O   0,C   8,C   6)          117.3204         0.442627   
     46. A(C   6,C   8,C  10)          116.4227         0.406219   
     47. A(O   0,C   8,C  10)          126.2567         0.432324   
     48. A(C  10,C   9,H  17)          117.0252         0.346649   
     49. A(C   7,C   9,H  17)          118.1749         0.352326   
     50. A(C   7,C   9,C  10)          124.7996         0.424478   
     51. A(C   8,C  10,C   9)          116.2873         0.406949   
     52. A(O   1,C  10,C   9)          117.4068         0.443467   
     53. A(O   1,C  10,C   8)          126.3059         0.432349   
     54. D(C   7,C   4,C   3,C   5)   -115.1605         0.012675   
     55. D(C   7,C   4,C   3,H  11)      7.2838         0.012675   
     56. D(C   6,C   4,C   3,C   5)     64.0726         0.012675   
     57. D(C   7,C   4,C   3,H  12)    122.6768         0.012675   
     58. D(C   6,C   4,C   3,H  12)    -58.0900         0.012675   
     59. D(C   6,C   4,C   3,H  11)   -173.4831         0.012675   
     60. D(N   2,C   5,C   3,H  11)    -67.2026         0.010562   
     61. D(H  14,C   5,N   2,H  19)    164.7095         0.014741   
     62. D(H  13,C   5,N   2,H  19)     49.2632         0.014741   
     63. D(H  14,C   5,C   3,H  12)    -61.9041         0.010562   
     64. D(H  14,C   5,C   3,H  11)     53.3059         0.010562   
     65. D(C   3,C   5,N   2,H  18)     32.7706         0.014741   
     66. D(N   2,C   5,C   3,C   4)     55.7330         0.010562   
     67. D(N   2,C   5,C   3,H  12)    177.5874         0.010562   
     68. D(H  13,C   5,C   3,H  12)     54.8897         0.010562   
     69. D(H  13,C   5,C   3,H  11)    170.0997         0.010562   
     70. D(H  13,C   5,N   2,H  18)    156.6087         0.014741   
     71. D(H  14,C   5,C   3,C   4)    176.2415         0.010562   
     72. D(H  13,C   5,C   3,C   4)    -66.9647         0.010562   
     73. D(H  14,C   5,N   2,H  18)    -87.9450         0.014741   
     74. D(C   3,C   5,N   2,H  19)    -74.5749         0.014741   
     75. D(H  15,C   6,C   4,C   7)   -179.3299         0.024668   
     76. D(H  15,C   6,C   4,C   3)      1.4114         0.024668   
     77. D(C   8,C   6,C   4,C   7)      1.0831         0.024668   
     78. D(C   8,C   6,C   4,C   3)   -178.1756         0.024668   
     79. D(H  16,C   7,C   4,C   6)    179.5821         0.028554   
     80. D(H  16,C   7,C   4,C   3)     -1.1630         0.028554   
     81. D(C   9,C   7,C   4,C   6)     -0.8061         0.028554   
     82. D(C   9,C   7,C   4,C   3)    178.4488         0.028554   
     83. D(O   0,C   8,C   6,H  15)     -0.2509         0.020661   
     84. D(O   0,C   8,C   6,C   4)    179.3454         0.020661   
     85. D(C  10,C   8,C   6,H  15)    179.8670         0.020661   
     86. D(C  10,C   8,C   6,C   4)     -0.5366         0.020661   
     87. D(H  17,C   9,C   7,H  16)     -0.1288         0.025816   
     88. D(H  17,C   9,C   7,C   4)   -179.7518         0.025816   
     89. D(C  10,C   9,C   7,H  16)    179.6754         0.025816   
     90. D(C  10,C   9,C   7,C   4)      0.0524         0.025816   
     91. D(C   8,C  10,C   9,H  17)   -179.7102         0.021101   
     92. D(C   8,C  10,C   9,C   7)      0.4835         0.021101   
     93. D(O   1,C  10,C   9,H  17)      0.2640         0.021101   
     94. D(O   1,C  10,C   9,C   7)   -179.5423         0.021101   
     95. D(C   9,C  10,C   8,C   6)     -0.2410         0.015836   
     96. D(C   9,C  10,C   8,O   0)    179.8890         0.015836   
     97. D(O   1,C  10,C   8,C   6)    179.7874         0.015836   
     98. D(O   1,C  10,C   8,O   0)     -0.0826         0.015836   
    -----------------------------------------------------------------

Number of atoms                         .... 20
Number of degrees of freedom            .... 98

         *************************************************************
         *                GEOMETRY OPTIMIZATION CYCLE   1            *
         *************************************************************
---------------------------------
CARTESIAN COORDINATES (ANGSTROEM)
---------------------------------
  O     -2.031037   -2.062449   -0.049321
  O     -3.307150    0.599768   -0.503427
  N      2.925979    0.077175   -1.435707
  C      2.153620    0.147371    0.963706
  C      0.699293    0.250785    0.602187
  C      3.015942   -0.544013   -0.105473
  C     -0.084508   -0.900396    0.442535
  C      0.094415    1.478147    0.401001
  C     -1.458703   -0.912270    0.065928
  C     -1.251647    1.527268    0.034471
  C     -2.083157    0.389278   -0.155479
  H      2.560882    1.148697    1.155720
  H      2.243050   -0.399729    1.910689
  H      2.747056   -1.602590   -0.194985
  H      4.062616   -0.511037    0.216663
  H      0.376102   -1.873851    0.608721
  H      0.639013    2.405862    0.514153
  H     -1.706353    2.504030   -0.122715
  H      2.786392    1.080241   -1.306495
  H      2.003359   -0.207406   -1.803065

----------------------------
CARTESIAN COORDINATES (A.U.)
----------------------------
  NO LB      ZA    FRAG     MASS         X           Y           Z
   0 O     8.0000    0    15.999   -3.838104   -3.897464   -0.093203
   1 O     8.0000    0    15.999   -6.249608    1.133397   -0.951339
   2 N     7.0000    0    14.007    5.529299    0.145840   -2.713093
   3 C     6.0000    0    12.011    4.069752    0.278491    1.821140
   4 C     6.0000    0    12.011    1.321472    0.473915    1.137969
   5 C     6.0000    0    12.011    5.699304   -1.028036   -0.199315
   6 C     6.0000    0    12.011   -0.159697   -1.701502    0.836270
   7 C     6.0000    0    12.011    0.178418    2.793293    0.757782
   8 C     6.0000    0    12.011   -2.756549   -1.723940    0.124586
   9 C     6.0000    0    12.011   -2.365270    2.886118    0.065141
  10 C     6.0000    0    12.011   -3.936596    0.735629   -0.293813
  11 H     1.0000    0     1.008    4.839366    2.170723    2.183994
  12 H     1.0000    0     1.008    4.238750   -0.755378    3.610679
  13 H     1.0000    0     1.008    5.191184   -3.028456   -0.368468
  14 H     1.0000    0     1.008    7.677232   -0.965720    0.409434
  15 H     1.0000    0     1.008    0.710730   -3.541065    1.150316
  16 H     1.0000    0     1.008    1.207560    4.546420    0.971608
  17 H     1.0000    0     1.008   -3.224540    4.731931   -0.231898
  18 H     1.0000    0     1.008    5.265518    2.041360   -2.468918
  19 H     1.0000    0     1.008    3.785800   -0.391941   -3.407299

--------------------------------
INTERNAL COORDINATES (ANGSTROEM)
--------------------------------
 O      0   0   0     0.000000000000     0.00000000     0.00000000
 O      1   0   0     2.986984433018     0.00000000     0.00000000
 N      1   2   0     5.574232200638    90.00001023     0.00000000
 C      3   1   2     2.521636105362    60.10902995    89.27255979
 C      4   3   1     1.502150946372    93.98270511   328.83546107
 C      3   1   2     1.470880813482    70.57051758   124.93437497
 C      5   4   3     1.401802576494   120.81119965    90.29780929
 C      5   4   3     1.383029529881   121.30124252   271.06465716
 C      1   2   3     1.289868315604    53.72933759    27.57706436
 C      8   5   4     1.395936968987   119.41647599   178.44881207
 C      2   1   3     1.289780103294    53.70799901   332.38254841
 H      4   3   1     1.097900483248    94.48428640   218.60724927
 H      4   3   1     1.097311686436   141.47452775    95.98801439
 H      6   3   1     1.095854618126   108.60720870    58.83471413
 H      6   3   1     1.095621048241   108.15724364   174.28098529
 H      7   5   4     1.089676096701   118.67938329     1.41138362
 H      8   5   4     1.081686404617   121.71595344   358.83696578
 H     10   8   5     1.088819998749   118.17494140   180.24822707
 H      3   1   2     1.020941561437   102.94754382    20.16494417
 H      3   1   2     1.033037225914    35.75545852   288.98515526

---------------------------
INTERNAL COORDINATES (A.U.)
---------------------------
 O      0   0   0     0.000000000000     0.00000000     0.00000000
 O      1   0   0     5.644582544691     0.00000000     0.00000000
 N      1   2   0    10.533772266091    90.00001023     0.00000000
 C      3   1   2     4.765201648542    60.10902995    89.27255979
 C      4   3   1     2.838653900454    93.98270511   328.83546107
 C      3   1   2     2.779561913120    70.57051758   124.93437497
 C      5   4   3     2.649022963399   120.81119965    90.29780929
 C      5   4   3     2.613547046602   121.30124252   271.06465716
 C      1   2   3     2.437497865313    53.72933759    27.57706436
 C      8   5   4     2.637938571602   119.41647599   178.44881207
 C      2   1   3     2.437331168206    53.70799901   332.38254841
 H      4   3   1     2.074731235638    94.48428640   218.60724927
 H      4   3   1     2.073618570915   141.47452775    95.98801439
 H      6   3   1     2.070865110852   108.60720870    58.83471413
 H      6   3   1     2.070423727735   108.15724364   174.28098529
 H      7   5   4     2.059189397445   118.67938329     1.41138362
 H      8   5   4     2.044091067512   121.71595344   358.83696578
 H     10   8   5     2.057571606772   118.17494140   180.24822707
 H      3   1   2     1.929299949853   102.94754382    20.16494417
 H      3   1   2     1.952157443124    35.75545852   288.98515526

---------------------
BASIS SET INFORMATION
---------------------
There are 4 groups of distinct atoms

 Group   1 Type O   : 11s6p2d1f contracted to 5s3p2d1f pattern {62111/411/11/1}
 Group   2 Type N   : 11s6p2d1f contracted to 5s3p2d1f pattern {62111/411/11/1}
 Group   3 Type C   : 11s6p2d1f contracted to 5s3p2d1f pattern {62111/411/11/1}
 Group   4 Type H   : 5s1p contracted to 3s1p pattern {311/1}

Atom   0O    basis set group =>   1
Atom   1O    basis set group =>   1
Atom   2N    basis set group =>   2
Atom   3C    basis set group =>   3
Atom   4C    basis set group =>   3
Atom   5C    basis set group =>   3
Atom   6C    basis set group =>   3
Atom   7C    basis set group =>   3
Atom   8C    basis set group =>   3
Atom   9C    basis set group =>   3
Atom  10C    basis set group =>   3
Atom  11H    basis set group =>   4
Atom  12H    basis set group =>   4
Atom  13H    basis set group =>   4
Atom  14H    basis set group =>   4
Atom  15H    basis set group =>   4
Atom  16H    basis set group =>   4
Atom  17H    basis set group =>   4
Atom  18H    basis set group =>   4
Atom  19H    basis set group =>   4
---------------------------------
AUXILIARY/J BASIS SET INFORMATION
---------------------------------
There are 4 groups of distinct atoms

 Group   1 Type O   : 12s5p4d2f1g contracted to 6s4p3d1f1g pattern {711111/2111/211/2/1}
 Group   2 Type N   : 12s5p4d2f1g contracted to 6s4p3d1f1g pattern {711111/2111/211/2/1}
 Group   3 Type C   : 12s5p4d2f1g contracted to 6s4p3d1f1g pattern {711111/2111/211/2/1}
 Group   4 Type H   : 5s2p1d contracted to 3s1p1d pattern {311/2/1}

Atom   0O    basis set group =>   1
Atom   1O    basis set group =>   1
Atom   2N    basis set group =>   2
Atom   3C    basis set group =>   3
Atom   4C    basis set group =>   3
Atom   5C    basis set group =>   3
Atom   6C    basis set group =>   3
Atom   7C    basis set group =>   3
Atom   8C    basis set group =>   3
Atom   9C    basis set group =>   3
Atom  10C    basis set group =>   3
Atom  11H    basis set group =>   4
Atom  12H    basis set group =>   4
Atom  13H    basis set group =>   4
Atom  14H    basis set group =>   4
Atom  15H    basis set group =>   4
Atom  16H    basis set group =>   4
Atom  17H    basis set group =>   4
Atom  18H    basis set group =>   4
Atom  19H    basis set group =>   4


           ************************************************************
           *        Program running with 8 parallel MPI-processes     *
           *              working on a common directory               *
           ************************************************************
------------------------------------------------------------------------------
                           ORCA GTO INTEGRAL CALCULATION
                           -- RI-GTO INTEGRALS CHOSEN --
------------------------------------------------------------------------------
------------------------------------------------------------------------------
                   ___                                                        
                  /   \      - P O W E R E D   B Y -                         
                 /     \                                                     
                 |  |  |   _    _      __       _____    __    __             
                 |  |  |  | |  | |    /  \     |  _  \  |  |  /  |          
                  \  \/   | |  | |   /    \    | | | |  |  | /  /          
                 / \  \   | |__| |  /  /\  \   | |_| |  |  |/  /          
                |  |  |   |  __  | /  /__\  \  |    /   |      \           
                |  |  |   | |  | | |   __   |  |    \   |  |\   \          
                \     /   | |  | | |  |  |  |  | |\  \  |  | \   \       
                 \___/    |_|  |_| |__|  |__|  |_| \__\ |__|  \__/        
                                                                              
                      - O R C A' S   B I G   F R I E N D -                    
                                      &                                       
                       - I N T E G R A L  F E E D E R -                       
                                                                              
 v1 FN, 2020, v2 2021                                                         
------------------------------------------------------------------------------


Reading SHARK input file M0002.SHARKINP.tmp ... ok
----------------------
SHARK INTEGRAL PACKAGE
----------------------

Number of atoms                             ...     20
Number of basis functions                   ...    395
Number of shells                            ...    157
Maximum angular momentum                    ...      3
Integral batch strategy                     ... SHARK/LIBINT Hybrid
RI-J (if used) integral strategy            ... SPLIT-RIJ (Revised 2003 algorithm where possible)
Printlevel                                  ...      1
Contraction scheme used                     ... SEGMENTED contraction
Coulomb Range Separation                    ... NOT USED
Exchange Range Separation                   ... NOT USED
Finite Nucleus Model                        ... NOT USED
Auxiliary Coulomb fitting basis             ... AVAILABLE
   # of basis functions in Aux-J            ...    638
   # of shells in Aux-J                     ...    210
   Maximum angular momentum in Aux-J        ...      4
Auxiliary J/K fitting basis                 ... NOT available
Auxiliary Correlation fitting basis         ... NOT available
Auxiliary 'external' fitting basis          ... NOT available
Integral threshold                          ...     2.500000e-11
Primitive cut-off                           ...     2.500000e-12
Primitive pair pre-selection threshold      ...     2.500000e-12

Calculating pre-screening integrals         ... done (  0.1 sec) Dimension = 157
Organizing shell pair data                  ... done (  0.1 sec)
Shell pair information
Total number of shell pairs                 ...     12403
Shell pairs after pre-screening             ...     10696
Total number of primitive shell pairs       ...     37944
Primitive shell pairs kept                  ...     23652
          la=0 lb=0:   2824 shell pairs
          la=1 lb=0:   3031 shell pairs
          la=1 lb=1:    835 shell pairs
          la=2 lb=0:   1535 shell pairs
          la=2 lb=1:    833 shell pairs
          la=2 lb=2:    222 shell pairs
          la=3 lb=0:    742 shell pairs
          la=3 lb=1:    409 shell pairs
          la=3 lb=2:    208 shell pairs
          la=3 lb=3:     57 shell pairs

Calculating one electron integrals          ... done (  0.0 sec)
Calculating RI/J V-Matrix + Cholesky decomp.... done (  0.0 sec)
Calculating Nuclear repulsion               ... done (  0.0 sec) ENN=    574.478981480372 Eh

SHARK setup successfully completed in   0.5 seconds

Maximum memory used throughout the entire GTOINT-calculation: 18.8 MB


           ************************************************************
           *        Program running with 8 parallel MPI-processes     *
           *              working on a common directory               *
           ************************************************************
-------------------------------------------------------------------------------
                                 ORCA SCF
-------------------------------------------------------------------------------

------------
SCF SETTINGS
------------
Hamiltonian:
 Density Functional     Method          .... DFT(GTOs)
 Exchange Functional    Exchange        .... PBE
   PBE kappa parameter   XKappa         ....  0.804000
   PBE mue parameter    XMuePBE         ....  0.219520
 Correlation Functional Correlation     .... PBE
   PBE beta parameter  CBetaPBE         ....  0.066725
 LDA part of GGA corr.  LDAOpt          .... PW91-LDA
 Gradients option       PostSCFGGA      .... off
   Density functional embedding theory  .... OFF
   NL short-range parameter             ....  6.400000
 RI-approximation to the Coulomb term is turned on
   Number of AuxJ basis functions       .... 638


General Settings:
 Integral files         IntName         .... M0002
 Hartree-Fock type      HFTyp           .... RHF
 Total Charge           Charge          ....   -2
 Multiplicity           Mult            ....    1
 Number of Electrons    NEL             ....   82
 Basis Dimension        Dim             ....  395
 Nuclear Repulsion      ENuc            ....    574.4789814804 Eh

Convergence Acceleration:
 DIIS                   CNVDIIS         .... on
   Start iteration      DIISMaxIt       ....    12
   Startup error        DIISStart       ....  0.200000
   # of expansion vecs  DIISMaxEq       ....     5
   Bias factor          DIISBfac        ....   1.050
   Max. coefficient     DIISMaxC        ....  10.000
 Trust-Rad. Augm. Hess. CNVTRAH         .... auto
   Auto Start mean grad. ratio tolernc. ....  1.125000
   Auto Start start iteration           ....    20
   Auto Start num. interpolation iter.  ....    10
   Max. Number of Micro iterations      ....    16
   Max. Number of Macro iterations      .... Maxiter - #DIIS iter
   Number of Davidson start vectors     ....     2
   Converg. threshold I  (grad. norm)   ....   1.000e-05
   Converg. threshold II (energy diff.) ....   1.000e-08
   Grad. Scal. Fac. for Micro threshold ....   0.100
   Minimum threshold for Micro iter.    ....   0.010
   NR start threshold (gradient norm)   ....   0.001
   Initial trust radius                 ....   0.400
   Minimum AH scaling param. (alpha)    ....   1.000
   Maximum AH scaling param. (alpha)    .... 1000.000
   Orbital update algorithm             .... Taylor
   White noise on init. David. guess    .... on
   Maximum white noise                  ....   0.010
   Quad. conv. algorithm                .... NR
 SOSCF                  CNVSOSCF        .... on
   Start iteration      SOSCFMaxIt      ....   150
   Startup grad/error   SOSCFStart      ....  0.003300
 Level Shifting         CNVShift        .... on
   Level shift para.    LevelShift      ....    0.2500
   Turn off err/grad.   ShiftErr        ....    0.0010
 Zerner damping         CNVZerner       .... off
 Static damping         CNVDamp         .... on
   Fraction old density DampFac         ....    0.7000
   Max. Damping (<1)    DampMax         ....    0.9800
   Min. Damping (>=0)   DampMin         ....    0.0000
   Turn off err/grad.   DampErr         ....    0.1000
 Fernandez-Rico         CNVRico         .... off

SCF Procedure:
 Maximum # iterations   MaxIter         ....   125
 SCF integral mode      SCFMode         .... Direct
   Integral package                     .... SHARK and LIBINT hybrid scheme
 Reset frequency        DirectResetFreq ....    20
 Integral Threshold     Thresh          ....  2.500e-11 Eh
 Primitive CutOff       TCut            ....  2.500e-12 Eh

Convergence Tolerance:
 Convergence Check Mode ConvCheckMode   .... Total+1el-Energy
 Convergence forced     ConvForced      .... 0
 Energy Change          TolE            ....  1.000e-08 Eh
 1-El. energy change                    ....  1.000e-05 Eh
 Orbital Gradient       TolG            ....  1.000e-05
 Orbital Rotation angle TolX            ....  1.000e-05
 DIIS Error             TolErr          ....  5.000e-07


Diagonalization of the overlap matrix:
Smallest eigenvalue                        ... 1.076e-05
Time for diagonalization                   ...    0.037 sec
Threshold for overlap eigenvalues          ... 1.000e-08
Number of eigenvalues below threshold      ... 0
Time for construction of square roots      ...    0.022 sec
Total time needed                          ...    0.061 sec

Time for model grid setup =    0.160 sec

------------------------------
INITIAL GUESS: MODEL POTENTIAL
------------------------------
Loading Hartree-Fock densities                     ... done
Calculating cut-offs                               ... done
Initializing the effective Hamiltonian             ... done
Setting up the integral package (SHARK)            ... done
Starting the Coulomb interaction                   ... done (   0.4 sec)
Reading the grid                                   ... done
Mapping shells                                     ... done
Starting the XC term evaluation                    ... done (   0.6 sec)
  promolecular density results
     # of electrons  =     79.996866848
     EX              =    -66.336145374
     EC              =     -2.663169257
     EX+EC           =    -68.999314631
Transforming the Hamiltonian                       ... done (   0.1 sec)
Diagonalizing the Hamiltonian                      ... done (   0.1 sec)
Back transforming the eigenvectors                 ... done (   0.0 sec)
Now organizing SCF variables                       ... done
                      ------------------
                      INITIAL GUESS DONE (   1.5 sec)
                      ------------------
-------------------
DFT GRID GENERATION
-------------------

General Integration Accuracy     IntAcc      ... 4.388
Radial Grid Type                 RadialGrid  ... OptM3 with GC (2021)
Angular Grid (max. ang.)         AngularGrid ... 4 (Lebedev-302)
Angular grid pruning method      GridPruning ... 4 (adaptive)
Weight generation scheme         WeightScheme... Becke
Basis function cutoff            BFCut       ... 1.0000e-11
Integration weight cutoff        WCut        ... 1.0000e-14
Angular grids for H and He will be reduced by one unit
Partially contracted basis set               ... off
Rotationally invariant grid construction     ... off

Total number of grid points                  ...    94925
Total number of batches                      ...     1493
Average number of points per batch           ...       63
Average number of grid points per atom       ...     4746
Time for grid setup =    0.816 sec

--------------
SCF ITERATIONS
--------------
ITER       Energy         Delta-E        Max-DP      RMS-DP      [F,P]     Damp
               ***  Starting incremental Fock matrix formation  ***
  0   -514.3781691006   0.000000000000 3.20650415  0.02946581  0.3451140 0.7000
  1   -514.6757558684  -0.297586767799 2.29752615  0.02470059  0.0988497 0.7000
                               ***Turning on DIIS***
  2   -514.7600550105  -0.084299142118 1.96901527  0.01523091  0.0287787 0.0000
  3   -514.9037359053  -0.143680894858 2.46312993  0.02619419  0.0663861 0.0000
  4   -514.9474037168  -0.043667811432 1.03273772  0.00808312  0.0415655 0.0000
  5   -514.9561488506  -0.008745133840 0.57741585  0.00450766  0.0048702 0.0000
  6   -514.9569512530  -0.000802402411 0.31544047  0.00243666  0.0038758 0.0000
                      *** Initiating the SOSCF procedure ***
                           *** Shutting down DIIS ***
                      *** Re-Reading the Fockian *** 
                      *** Removing any level shift *** 
ITER      Energy       Delta-E        Grad      Rot      Max-DP    RMS-DP
  7   -514.95720617  -0.0002549203  0.001826  0.001826  0.182108  0.001360
               *** Restarting incremental Fock matrix formation ***
  8   -514.95732667  -0.0001204965  0.001292  0.018988  0.421780  0.003461
  9   -514.95744986  -0.0001231893  0.000369  0.002920  0.028361  0.000274
 10   -514.95743053   0.0000193339  0.000978  0.002154  0.026071  0.000220
 11   -514.95745472  -0.0000241987  0.000146  0.000637  0.009806  0.000110
 12   -514.95744906   0.0000056648  0.000338  0.000732  0.009042  0.000093
 13   -514.95745566  -0.0000065995  0.000116  0.000862  0.007190  0.000074
 14   -514.95745397   0.0000016862  0.000200  0.000559  0.005748  0.000055
 15   -514.95745606  -0.0000020919  0.000033  0.000173  0.002903  0.000024
 16   -514.95745575   0.0000003107  0.000076  0.000148  0.002053  0.000014
 17   -514.95745616  -0.0000004063  0.000010  0.000044  0.001494  0.000017
 18   -514.95745614   0.0000000185  0.000015  0.000028  0.000500  0.000006
 19   -514.95745617  -0.0000000307  0.000003  0.000014  0.000428  0.000005
 20   -514.95745617   0.0000000055  0.000006  0.000009  0.000106  0.000001
                  ***Gradient check signals convergence***
              ***Rediagonalizing the Fockian in SOSCF/NRSCF***

               *****************************************************
               *                     SUCCESS                       *
               *           SCF CONVERGED AFTER  21 CYCLES          *
               *****************************************************


----------------
TOTAL SCF ENERGY
----------------

Total Energy       :         -514.95745617 Eh          -14012.70477 eV

Components:
Nuclear Repulsion  :          574.47898148 Eh           15632.36782 eV
Electronic Energy  :        -1089.43643765 Eh          -29645.07259 eV
One Electron Energy:        -1866.73686037 Eh          -50796.49241 eV
Two Electron Energy:          777.30042271 Eh           21151.41982 eV

Virial components:
Potential Energy   :        -1028.17506674 Eh          -27978.06594 eV
Kinetic Energy     :          513.21761056 Eh           13965.36117 eV
Virial Ratio       :            2.00339007


DFT components:
N(Alpha)           :       41.000013123758 electrons
N(Beta)            :       41.000013123758 electrons
N(Total)           :       82.000026247515 electrons
E(X)               :      -68.052290958818 Eh       
E(C)               :       -2.734822953179 Eh       
E(XC)              :      -70.787113911997 Eh       
DFET-embed. en.    :        0.000000000000 Eh       

---------------
SCF CONVERGENCE
---------------

  Last Energy change         ...   -7.8894e-09  Tolerance :   1.0000e-08
  Last MAX-Density change    ...    1.8273e-04  Tolerance :   1.0000e-07
  Last RMS-Density change    ...    1.6210e-06  Tolerance :   5.0000e-09
  Last Orbital Gradient      ...    4.1779e-07  Tolerance :   1.0000e-05
  Last Orbital Rotation      ...    1.8978e-06  Tolerance :   1.0000e-05

             **** THE GBW FILE WAS UPDATED (M0002.gbw) ****
             **** DENSITY M0002.scfp WAS UPDATED ****
             **** ENERGY FILE WAS UPDATED (M0002.en.tmp) ****
             **** THE GBW FILE WAS UPDATED (M0002.gbw) ****
             **** DENSITY M0002.scfp WAS UPDATED ****
----------------
ORBITAL ENERGIES
----------------

  NO   OCC          E(Eh)            E(eV) 
   0   2.0000     -18.335311      -498.9292 
   1   2.0000     -18.335090      -498.9232 
   2   2.0000     -13.726229      -373.5097 
   3   2.0000      -9.660837      -262.8847 
   4   2.0000      -9.618324      -261.7279 
   5   2.0000      -9.574651      -260.5395 
   6   2.0000      -9.573510      -260.5084 
   7   2.0000      -9.558536      -260.1010 
   8   2.0000      -9.550757      -259.8893 
   9   2.0000      -9.532097      -259.3816 
  10   2.0000      -9.531686      -259.3704 
  11   2.0000      -0.565687       -15.3931 
  12   2.0000      -0.544347       -14.8124 
  13   2.0000      -0.519427       -14.1343 
  14   2.0000      -0.444293       -12.0898 
  15   2.0000      -0.395669       -10.7667 
  16   2.0000      -0.327087        -8.9005 
  17   2.0000      -0.311972        -8.4892 
  18   2.0000      -0.268401        -7.3036 
  19   2.0000      -0.207783        -5.6540 
  20   2.0000      -0.196165        -5.3379 
  21   2.0000      -0.169146        -4.6027 
  22   2.0000      -0.144848        -3.9415 
  23   2.0000      -0.130040        -3.5386 
  24   2.0000      -0.111261        -3.0276 
  25   2.0000      -0.095678        -2.6035 
  26   2.0000      -0.074717        -2.0331 
  27   2.0000      -0.054905        -1.4940 
  28   2.0000      -0.045745        -1.2448 
  29   2.0000      -0.021820        -0.5938 
  30   2.0000      -0.012534        -0.3411 
  31   2.0000      -0.008474        -0.2306 
  32   2.0000       0.022730         0.6185 
  33   2.0000       0.025268         0.6876 
  34   2.0000       0.030697         0.8353 
  35   2.0000       0.057773         1.5721 
  36   2.0000       0.063711         1.7337 
  37   2.0000       0.144085         3.9208 
  38   2.0000       0.153828         4.1859 
  39   2.0000       0.175671         4.7803 
  40   2.0000       0.199851         5.4382 
  41   0.0000       0.240546         6.5456 
  42   0.0000       0.261385         7.1126 
  43   0.0000       0.276001         7.5104 
  44   0.0000       0.292910         7.9705 
  45   0.0000       0.301330         8.1996 
  46   0.0000       0.311247         8.4695 
  47   0.0000       0.324485         8.8297 
  48   0.0000       0.335098         9.1185 
  49   0.0000       0.337998         9.1974 
  50   0.0000       0.363647         9.8953 
  51   0.0000       0.370513        10.0822 
  52   0.0000       0.377172        10.2634 
  53   0.0000       0.397381        10.8133 
  54   0.0000       0.405599        11.0369 
  55   0.0000       0.426270        11.5994 
  56   0.0000       0.429746        11.6940 
  57   0.0000       0.455453        12.3935 
  58   0.0000       0.458072        12.4648 
  59   0.0000       0.470771        12.8103 
  60   0.0000       0.483154        13.1473 
  61   0.0000       0.487654        13.2698 
  62   0.0000       0.507312        13.8047 
  63   0.0000       0.517483        14.0814 
  64   0.0000       0.523880        14.2555 
  65   0.0000       0.535316        14.5667 
  66   0.0000       0.536779        14.6065 
  67   0.0000       0.540893        14.7185 
  68   0.0000       0.551817        15.0157 
  69   0.0000       0.559751        15.2316 
  70   0.0000       0.567649        15.4465 
  71   0.0000       0.579199        15.7608 
  72   0.0000       0.592819        16.1314 
  73   0.0000       0.598636        16.2897 
  74   0.0000       0.603741        16.4286 
  75   0.0000       0.614983        16.7345 
  76   0.0000       0.622620        16.9423 
  77   0.0000       0.630805        17.1651 
  78   0.0000       0.637928        17.3589 
  79   0.0000       0.640548        17.4302 
  80   0.0000       0.645947        17.5771 
  81   0.0000       0.652856        17.7651 
  82   0.0000       0.661926        18.0119 
  83   0.0000       0.667592        18.1661 
  84   0.0000       0.677992        18.4491 
  85   0.0000       0.685194        18.6451 
  86   0.0000       0.695313        18.9204 
  87   0.0000       0.698142        18.9974 
  88   0.0000       0.709634        19.3101 
  89   0.0000       0.712010        19.3748 
  90   0.0000       0.725974        19.7548 
  91   0.0000       0.729136        19.8408 
  92   0.0000       0.736627        20.0446 
  93   0.0000       0.744443        20.2573 
  94   0.0000       0.754052        20.5188 
  95   0.0000       0.762943        20.7607 
  96   0.0000       0.779820        21.2200 
  97   0.0000       0.788806        21.4645 
  98   0.0000       0.803137        21.8545 
  99   0.0000       0.811079        22.0706 
 100   0.0000       0.832272        22.6473 
 101   0.0000       0.843386        22.9497 
 102   0.0000       0.856563        23.3083 
 103   0.0000       0.880465        23.9587 
 104   0.0000       0.899863        24.4865 
 105   0.0000       0.910699        24.7814 
 106   0.0000       0.919423        25.0188 
 107   0.0000       0.927049        25.2263 
 108   0.0000       0.931489        25.3471 
 109   0.0000       0.944361        25.6974 
 110   0.0000       0.974112        26.5069 
 111   0.0000       0.981985        26.7212 
 112   0.0000       0.999557        27.1993 
 113   0.0000       1.003012        27.2933 
 114   0.0000       1.033382        28.1198 
 115   0.0000       1.041337        28.3362 
 116   0.0000       1.053596        28.6698 
 117   0.0000       1.060486        28.8573 
 118   0.0000       1.077454        29.3190 
 119   0.0000       1.098715        29.8975 
 120   0.0000       1.116910        30.3927 
 121   0.0000       1.120780        30.4980 
 122   0.0000       1.131164        30.7805 
 123   0.0000       1.137809        30.9614 
 124   0.0000       1.146006        31.1844 
 125   0.0000       1.160191        31.5704 
 126   0.0000       1.173446        31.9311 
 127   0.0000       1.185279        32.2531 
 128   0.0000       1.191455        32.4211 
 129   0.0000       1.207115        32.8473 
 130   0.0000       1.232400        33.5353 
 131   0.0000       1.243311        33.8322 
 132   0.0000       1.295198        35.2441 
 133   0.0000       1.315733        35.8029 
 134   0.0000       1.327084        36.1118 
 135   0.0000       1.340166        36.4678 
 136   0.0000       1.353701        36.8361 
 137   0.0000       1.372277        37.3416 
 138   0.0000       1.376489        37.4562 
 139   0.0000       1.408485        38.3268 
 140   0.0000       1.427179        38.8355 
 141   0.0000       1.440045        39.1856 
 142   0.0000       1.447830        39.3975 
 143   0.0000       1.462503        39.7967 
 144   0.0000       1.469488        39.9868 
 145   0.0000       1.493204        40.6321 
 146   0.0000       1.501773        40.8653 
 147   0.0000       1.518251        41.3137 
 148   0.0000       1.524290        41.4781 
 149   0.0000       1.558663        42.4134 
 150   0.0000       1.565615        42.6025 
 151   0.0000       1.584423        43.1143 
 152   0.0000       1.597028        43.4573 
 153   0.0000       1.608323        43.7647 
 154   0.0000       1.623707        44.1833 
 155   0.0000       1.635370        44.5007 
 156   0.0000       1.657841        45.1121 
 157   0.0000       1.678245        45.6674 
 158   0.0000       1.703300        46.3491 
 159   0.0000       1.726995        46.9939 
 160   0.0000       1.741314        47.3836 
 161   0.0000       1.760426        47.9036 
 162   0.0000       1.768930        48.1350 
 163   0.0000       1.782089        48.4931 
 164   0.0000       1.793900        48.8145 
 165   0.0000       1.801692        49.0265 
 166   0.0000       1.822030        49.5800 
 167   0.0000       1.829588        49.7856 
 168   0.0000       1.838263        50.0217 
 169   0.0000       1.842563        50.1387 
 170   0.0000       1.846768        50.2531 
 171   0.0000       1.885709        51.3127 
 172   0.0000       1.899951        51.7003 
 173   0.0000       1.910790        51.9953 
 174   0.0000       1.921531        52.2875 
 175   0.0000       1.950430        53.0739 
 176   0.0000       1.960379        53.3446 
 177   0.0000       1.988329        54.1052 
 178   0.0000       2.006189        54.5912 
 179   0.0000       2.022134        55.0251 
 180   0.0000       2.042756        55.5862 
 181   0.0000       2.047354        55.7113 
 182   0.0000       2.057900        55.9983 
 183   0.0000       2.080078        56.6018 
 184   0.0000       2.092666        56.9443 
 185   0.0000       2.113952        57.5236 
 186   0.0000       2.118508        57.6475 
 187   0.0000       2.150766        58.5253 
 188   0.0000       2.174754        59.1781 
 189   0.0000       2.186442        59.4961 
 190   0.0000       2.204333        59.9829 
 191   0.0000       2.212793        60.2132 
 192   0.0000       2.227845        60.6228 
 193   0.0000       2.249605        61.2149 
 194   0.0000       2.259148        61.4745 
 195   0.0000       2.268174        61.7202 
 196   0.0000       2.275320        61.9146 
 197   0.0000       2.291346        62.3507 
 198   0.0000       2.317755        63.0693 
 199   0.0000       2.332328        63.4659 
 200   0.0000       2.368937        64.4621 
 201   0.0000       2.373143        64.5765 
 202   0.0000       2.403116        65.3921 
 203   0.0000       2.405931        65.4687 
 204   0.0000       2.414671        65.7065 
 205   0.0000       2.423011        65.9335 
 206   0.0000       2.450937        66.6934 
 207   0.0000       2.461879        66.9911 
 208   0.0000       2.489647        67.7467 
 209   0.0000       2.510993        68.3276 
 210   0.0000       2.521355        68.6095 
 211   0.0000       2.545487        69.2662 
 212   0.0000       2.579845        70.2011 
 213   0.0000       2.589673        70.4686 
 214   0.0000       2.630715        71.5854 
 215   0.0000       2.651303        72.1456 
 216   0.0000       2.664734        72.5111 
 217   0.0000       2.691927        73.2510 
 218   0.0000       2.695376        73.3449 
 219   0.0000       2.715098        73.8816 
 220   0.0000       2.723805        74.1185 
 221   0.0000       2.739801        74.5538 
 222   0.0000       2.764061        75.2139 
 223   0.0000       2.782084        75.7043 
 224   0.0000       2.797800        76.1320 
 225   0.0000       2.806662        76.3731 
 226   0.0000       2.833463        77.1025 
 227   0.0000       2.849228        77.5314 
 228   0.0000       2.861125        77.8552 
 229   0.0000       2.866521        78.0020 
 230   0.0000       2.880799        78.3905 
 231   0.0000       2.894358        78.7595 
 232   0.0000       2.916846        79.3714 
 233   0.0000       2.923260        79.5459 
 234   0.0000       2.936947        79.9184 
 235   0.0000       2.945632        80.1547 
 236   0.0000       2.965501        80.6954 
 237   0.0000       2.981612        81.1338 
 238   0.0000       3.006581        81.8132 
 239   0.0000       3.017901        82.1213 
 240   0.0000       3.026571        82.3572 
 241   0.0000       3.053470        83.0891 
 242   0.0000       3.063228        83.3547 
 243   0.0000       3.081347        83.8477 
 244   0.0000       3.085319        83.9558 
 245   0.0000       3.101877        84.4064 
 246   0.0000       3.104372        84.4743 
 247   0.0000       3.135040        85.3088 
 248   0.0000       3.158665        85.9516 
 249   0.0000       3.163475        86.0825 
 250   0.0000       3.182234        86.5930 
 251   0.0000       3.194769        86.9341 
 252   0.0000       3.209481        87.3344 
 253   0.0000       3.213983        87.4569 
 254   0.0000       3.242411        88.2305 
 255   0.0000       3.257486        88.6407 
 256   0.0000       3.263257        88.7977 
 257   0.0000       3.271923        89.0335 
 258   0.0000       3.280896        89.2777 
 259   0.0000       3.302402        89.8629 
 260   0.0000       3.323598        90.4397 
 261   0.0000       3.334789        90.7442 
 262   0.0000       3.372287        91.7646 
 263   0.0000       3.377783        91.9142 
 264   0.0000       3.387926        92.1902 
 265   0.0000       3.401008        92.5461 
 266   0.0000       3.409636        92.7809 
 267   0.0000       3.422132        93.1209 
 268   0.0000       3.434445        93.4560 
 269   0.0000       3.441193        93.6396 
 270   0.0000       3.444045        93.7172 
 271   0.0000       3.464224        94.2663 
 272   0.0000       3.494812        95.0987 
 273   0.0000       3.499394        95.2233 
 274   0.0000       3.508147        95.4615 
 275   0.0000       3.531836        96.1061 
 276   0.0000       3.539521        96.3153 
 277   0.0000       3.561558        96.9149 
 278   0.0000       3.573182        97.2312 
 279   0.0000       3.576788        97.3293 
 280   0.0000       3.607434        98.1633 
 281   0.0000       3.615814        98.3913 
 282   0.0000       3.623078        98.5890 
 283   0.0000       3.650144        99.3255 
 284   0.0000       3.654872        99.4541 
 285   0.0000       3.664721        99.7221 
 286   0.0000       3.674430        99.9863 
 287   0.0000       3.693120       100.4949 
 288   0.0000       3.709042       100.9282 
 289   0.0000       3.731022       101.5263 
 290   0.0000       3.746935       101.9593 
 291   0.0000       3.750551       102.0577 
 292   0.0000       3.768923       102.5576 
 293   0.0000       3.781666       102.9044 
 294   0.0000       3.806791       103.5880 
 295   0.0000       3.820547       103.9624 
 296   0.0000       3.843342       104.5827 
 297   0.0000       3.859368       105.0187 
 298   0.0000       3.875386       105.4546 
 299   0.0000       3.902238       106.1853 
 300   0.0000       3.933549       107.0373 
 301   0.0000       3.968669       107.9930 
 302   0.0000       3.992572       108.6434 
 303   0.0000       4.012351       109.1816 
 304   0.0000       4.044557       110.0580 
 305   0.0000       4.085448       111.1707 
 306   0.0000       4.098071       111.5142 
 307   0.0000       4.106547       111.7448 
 308   0.0000       4.140132       112.6587 
 309   0.0000       4.167443       113.4019 
 310   0.0000       4.175199       113.6129 
 311   0.0000       4.192918       114.0951 
 312   0.0000       4.211187       114.5922 
 313   0.0000       4.261355       115.9574 
 314   0.0000       4.281824       116.5144 
 315   0.0000       4.302179       117.0682 
 316   0.0000       4.319235       117.5324 
 317   0.0000       4.332127       117.8832 
 318   0.0000       4.345719       118.2530 
 319   0.0000       4.376148       119.0810 
 320   0.0000       4.394805       119.5887 
 321   0.0000       4.412491       120.0700 
 322   0.0000       4.439782       120.8126 
 323   0.0000       4.448093       121.0388 
 324   0.0000       4.490835       122.2018 
 325   0.0000       4.520392       123.0061 
 326   0.0000       4.537678       123.4765 
 327   0.0000       4.563672       124.1838 
 328   0.0000       4.578617       124.5905 
 329   0.0000       4.629236       125.9679 
 330   0.0000       4.639182       126.2386 
 331   0.0000       4.704888       128.0265 
 332   0.0000       4.709218       128.1443 
 333   0.0000       4.774455       129.9195 
 334   0.0000       4.804355       130.7331 
 335   0.0000       4.814007       130.9958 
 336   0.0000       4.830040       131.4321 
 337   0.0000       4.876442       132.6947 
 338   0.0000       4.926313       134.0518 
 339   0.0000       4.943059       134.5075 
 340   0.0000       4.967654       135.1767 
 341   0.0000       4.991154       135.8162 
 342   0.0000       5.024404       136.7210 
 343   0.0000       5.037997       137.0909 
 344   0.0000       5.075093       138.1003 
 345   0.0000       5.116425       139.2250 
 346   0.0000       5.168791       140.6500 
 347   0.0000       5.176991       140.8731 
 348   0.0000       5.192334       141.2906 
 349   0.0000       5.256528       143.0374 
 350   0.0000       5.290233       143.9546 
 351   0.0000       5.318332       144.7192 
 352   0.0000       5.371417       146.1637 
 353   0.0000       5.443184       148.1166 
 354   0.0000       5.447304       148.2287 
 355   0.0000       5.483203       149.2055 
 356   0.0000       5.490410       149.4017 
 357   0.0000       5.499170       149.6400 
 358   0.0000       5.501867       149.7134 
 359   0.0000       5.599185       152.3616 
 360   0.0000       5.678469       154.5190 
 361   0.0000       5.686853       154.7471 
 362   0.0000       5.724842       155.7809 
 363   0.0000       5.815627       158.2512 
 364   0.0000       5.841319       158.9504 
 365   0.0000       5.857983       159.4038 
 366   0.0000       5.868646       159.6940 
 367   0.0000       6.107096       166.1825 
 368   0.0000       6.116405       166.4358 
 369   0.0000       6.362218       173.1248 
 370   0.0000       6.380707       173.6279 
 371   0.0000       6.542253       178.0238 
 372   0.0000       6.593987       179.4315 
 373   0.0000       6.625125       180.2788 
 374   0.0000       6.659389       181.2112 
 375   0.0000       6.757962       183.8935 
 376   0.0000       6.933213       188.6623 
 377   0.0000       7.001425       190.5185 
 378   0.0000       7.012251       190.8131 
 379   0.0000       7.100943       193.2265 
 380   0.0000       7.170308       195.1140 
 381   0.0000       7.256343       197.4551 
 382   0.0000       7.323892       199.2932 
 383   0.0000       7.469975       203.2684 
 384   0.0000      22.290174       606.5465 
 385   0.0000      22.413064       609.8905 
 386   0.0000      22.556706       613.7992 
 387   0.0000      22.788980       620.1197 
 388   0.0000      22.846227       621.6774 
 389   0.0000      23.049235       627.2016 
 390   0.0000      23.071226       627.8000 
 391   0.0000      23.572392       641.4374 
 392   0.0000      31.873457       867.3208 
 393   0.0000      43.828438      1192.6324 
 394   0.0000      44.015869      1197.7327 

                    ********************************
                    * MULLIKEN POPULATION ANALYSIS *
                    ********************************

-----------------------
MULLIKEN ATOMIC CHARGES
-----------------------
   0 O :   -0.562097
   1 O :   -0.563975
   2 N :   -0.500134
   3 C :   -0.170675
   4 C :    0.277230
   5 C :    0.015394
   6 C :   -0.374238
   7 C :   -0.243096
   8 C :    0.111405
   9 C :   -0.210755
  10 C :    0.085397
  11 H :    0.024503
  12 H :   -0.025723
  13 H :    0.066054
  14 H :   -0.036703
  15 H :   -0.096698
  16 H :   -0.081326
  17 H :   -0.086674
  18 H :    0.142200
  19 H :    0.229912
Sum of atomic charges:   -2.0000000

--------------------------------
MULLIKEN REDUCED ORBITAL CHARGES
--------------------------------
  0 O s       :     3.735291  s :     3.735291
      pz      :     1.594729  p :     4.798789
      px      :     1.739133
      py      :     1.464928
      dz2     :     0.002919  d :     0.026498
      dxz     :     0.001858
      dyz     :     0.006170
      dx2y2   :     0.007645
      dxy     :     0.007907
      f0      :     0.000148  f :     0.001518
      f+1     :     0.000054
      f-1     :     0.000169
      f+2     :     0.000126
      f-2     :     0.000201
      f+3     :     0.000420
      f-3     :     0.000400
  1 O s       :     3.734682  s :     3.734682
      pz      :     1.562828  p :     4.801303
      px      :     1.428192
      py      :     1.810283
      dz2     :     0.003351  d :     0.026473
      dxz     :     0.008010
      dyz     :     0.000681
      dx2y2   :     0.008011
      dxy     :     0.006420
      f0      :     0.000115  f :     0.001517
      f+1     :     0.000259
      f-1     :     0.000015
      f+2     :     0.000297
      f-2     :     0.000100
      f+3     :     0.000368
      f-3     :     0.000363
  2 N s       :     3.499973  s :     3.499973
      pz      :     1.349868  p :     3.955338
      px      :     1.467356
      py      :     1.138114
      dz2     :     0.012440  d :     0.042814
      dxz     :     0.008606
      dyz     :     0.005709
      dx2y2   :     0.012312
      dxy     :     0.003747
      f0      :     0.000441  f :     0.002009
      f+1     :     0.000337
      f-1     :     0.000397
      f+2     :     0.000375
      f-2     :     0.000164
      f+3     :     0.000001
      f-3     :     0.000293
  3 C s       :     3.072236  s :     3.072236
      pz      :     1.006976  p :     2.992741
      px      :     1.008179
      py      :     0.977586
      dz2     :     0.019024  d :     0.100232
      dxz     :     0.023510
      dyz     :     0.012378
      dx2y2   :     0.021139
      dxy     :     0.024181
      f0      :     0.000587  f :     0.005466
      f+1     :     0.000910
      f-1     :     0.000746
      f+2     :     0.001130
      f-2     :     0.000416
      f+3     :     0.000788
      f-3     :     0.000890
  4 C s       :     3.107799  s :     3.107799
      pz      :     0.970959  p :     2.471844
      px      :     0.770071
      py      :     0.730814
      dz2     :     0.010655  d :     0.133681
      dxz     :     0.018301
      dyz     :     0.033689
      dx2y2   :     0.041994
      dxy     :     0.029041
      f0      :     0.001302  f :     0.009446
      f+1     :     0.001004
      f-1     :     0.000653
      f+2     :     0.000815
      f-2     :     0.001450
      f+3     :     0.001106
      f-3     :     0.003116
  5 C s       :     3.055824  s :     3.055824
      pz      :     0.852938  p :     2.811920
      px      :     0.974614
      py      :     0.984368
      dz2     :     0.037631  d :     0.109429
      dxz     :     0.025353
      dyz     :     0.016133
      dx2y2   :     0.024891
      dxy     :     0.005421
      f0      :     0.001704  f :     0.007433
      f+1     :     0.001399
      f-1     :     0.001462
      f+2     :     0.001237
      f-2     :     0.000827
      f+3     :     0.000519
      f-3     :     0.000286
  6 C s       :     3.386255  s :     3.386255
      pz      :     1.174078  p :     2.907183
      px      :     1.004112
      py      :     0.728993
      dz2     :     0.005060  d :     0.073817
      dxz     :     0.014749
      dyz     :     0.009649
      dx2y2   :     0.019604
      dxy     :     0.024755
      f0      :     0.001049  f :     0.006983
      f+1     :     0.000959
      f-1     :     0.000579
      f+2     :     0.000607
      f-2     :     0.000819
      f+3     :     0.000978
      f-3     :     0.001991
  7 C s       :     3.244053  s :     3.244053
      pz      :     1.159809  p :     2.897727
      px      :     0.909869
      py      :     0.828050
      dz2     :     0.008230  d :     0.094406
      dxz     :     0.022145
      dyz     :     0.013079
      dx2y2   :     0.016453
      dxy     :     0.034498
      f0      :     0.001019  f :     0.006910
      f+1     :     0.000980
      f-1     :     0.000635
      f+2     :     0.000955
      f-2     :     0.000609
      f+3     :     0.000798
      f-3     :     0.001914
  8 C s       :     3.012642  s :     3.012642
      pz      :     0.907463  p :     2.712146
      px      :     0.886006
      py      :     0.918677
      dz2     :     0.011402  d :     0.148381
      dxz     :     0.023414
      dyz     :     0.038191
      dx2y2   :     0.031774
      dxy     :     0.043600
      f0      :     0.001661  f :     0.015426
      f+1     :     0.001128
      f-1     :     0.001160
      f+2     :     0.001483
      f-2     :     0.001750
      f+3     :     0.002225
      f-3     :     0.006018
  9 C s       :     3.249399  s :     3.249399
      pz      :     1.136280  p :     2.878026
      px      :     0.871871
      py      :     0.869875
      dz2     :     0.005918  d :     0.076284
      dxz     :     0.016732
      dyz     :     0.007829
      dx2y2   :     0.020366
      dxy     :     0.025440
      f0      :     0.001029  f :     0.007045
      f+1     :     0.001095
      f-1     :     0.000535
      f+2     :     0.000743
      f-2     :     0.000756
      f+3     :     0.001032
      f-3     :     0.001856
 10 C s       :     3.046065  s :     3.046065
      pz      :     0.908136  p :     2.705364
      px      :     0.880234
      py      :     0.916993
      dz2     :     0.015420  d :     0.147769
      dxz     :     0.041506
      dyz     :     0.016433
      dx2y2   :     0.037646
      dxy     :     0.036764
      f0      :     0.001453  f :     0.015405
      f+1     :     0.001821
      f-1     :     0.000655
      f+2     :     0.001923
      f-2     :     0.001762
      f+3     :     0.002622
      f-3     :     0.005169
 11 H s       :     0.954493  s :     0.954493
      pz      :     0.005079  p :     0.021003
      px      :     0.005730
      py      :     0.010194
 12 H s       :     1.003990  s :     1.003990
      pz      :     0.010219  p :     0.021733
      px      :     0.005323
      py      :     0.006191
 13 H s       :     0.913225  s :     0.913225
      pz      :     0.004003  p :     0.020722
      px      :     0.005185
      py      :     0.011534
 14 H s       :     1.015580  s :     1.015580
      pz      :     0.004803  p :     0.021123
      px      :     0.011723
      py      :     0.004596
 15 H s       :     1.073996  s :     1.073996
      pz      :     0.006979  p :     0.022703
      px      :     0.005258
      py      :     0.010466
 16 H s       :     1.058654  s :     1.058654
      pz      :     0.007093  p :     0.022672
      px      :     0.006384
      py      :     0.009196
 17 H s       :     1.064386  s :     1.064386
      pz      :     0.006794  p :     0.022288
      px      :     0.005711
      py      :     0.009783
 18 H s       :     0.821348  s :     0.821348
      pz      :     0.008057  p :     0.036452
      px      :     0.010485
      py      :     0.017910
 19 H s       :     0.735488  s :     0.735488
      pz      :     0.009660  p :     0.034601
      px      :     0.017076
      py      :     0.007865


                     *******************************
                     * LOEWDIN POPULATION ANALYSIS *
                     *******************************

----------------------
LOEWDIN ATOMIC CHARGES
----------------------
   0 O :   -0.157081
   1 O :   -0.156804
   2 N :   -0.204919
   3 C :   -0.287604
   4 C :   -0.263206
   5 C :   -0.371122
   6 C :   -0.222653
   7 C :   -0.283173
   8 C :   -0.407694
   9 C :   -0.247273
  10 C :   -0.409374
  11 H :    0.116847
  12 H :    0.109283
  13 H :    0.116647
  14 H :    0.085252
  15 H :    0.104138
  16 H :    0.097303
  17 H :    0.097176
  18 H :    0.123230
  19 H :    0.161029

-------------------------------
LOEWDIN REDUCED ORBITAL CHARGES
-------------------------------
  0 O s       :     3.438212  s :     3.438212
      pz      :     1.510058  p :     4.654405
      px      :     1.645469
      py      :     1.498878
      dz2     :     0.006589  d :     0.059663
      dxz     :     0.003699
      dyz     :     0.011653
      dx2y2   :     0.018736
      dxy     :     0.018985
      f0      :     0.000432  f :     0.004800
      f+1     :     0.000215
      f-1     :     0.000617
      f+2     :     0.000279
      f-2     :     0.000521
      f+3     :     0.001317
      f-3     :     0.001421
  1 O s       :     3.438318  s :     3.438318
      pz      :     1.490722  p :     4.653858
      px      :     1.475000
      py      :     1.688136
      dz2     :     0.006958  d :     0.059813
      dxz     :     0.015949
      dyz     :     0.001620
      dx2y2   :     0.018198
      dxy     :     0.017089
      f0      :     0.000406  f :     0.004815
      f+1     :     0.000766
      f-1     :     0.000062
      f+2     :     0.000828
      f-2     :     0.000334
      f+3     :     0.001150
      f-3     :     0.001269
  2 N s       :     3.119207  s :     3.119207
      pz      :     1.340310  p :     3.937579
      px      :     1.412955
      py      :     1.184315
      dz2     :     0.040790  d :     0.137715
      dxz     :     0.028644
[...]
 165   0.0000       2.636908        71.7539 
 166   0.0000       2.652695        72.1835 
 167   0.0000       2.720828        74.0375 
 168   0.0000       2.767238        75.3004 
 169   0.0000       2.778800        75.6150 
 170   0.0000       2.825777        76.8933 
 171   0.0000       2.834975        77.1436 
 172   0.0000       2.873224        78.1844 
 173   0.0000       2.887072        78.5612 
 174   0.0000       2.906421        79.0877 
 175   0.0000       2.931603        79.7730 
 176   0.0000       2.975997        80.9810 
 177   0.0000       2.994312        81.4794 
 178   0.0000       3.012411        81.9719 
 179   0.0000       3.025970        82.3408 
 180   0.0000       3.052756        83.0697 
 181   0.0000       3.061283        83.3017 
 182   0.0000       3.084786        83.9413 
 183   0.0000       3.102346        84.4191 
 184   0.0000       3.125910        85.0603 
 185   0.0000       3.146518        85.6211 
 186   0.0000       3.214295        87.4654 
 187   0.0000       3.237771        88.1042 
 188   0.0000       3.304257        89.9134 
 189   0.0000       3.307024        89.9887 
 190   0.0000       3.362057        91.4862 
 191   0.0000       3.371291        91.7375 
 192   0.0000       3.441761        93.6551 
 193   0.0000       3.504670        95.3669 
 194   0.0000       3.522492        95.8519 
 195   0.0000       3.683845       100.2425 
 196   0.0000       3.801817       103.4527 
 197   0.0000       3.817648       103.8835 
 198   0.0000       3.993152       108.6592 

                    ********************************
                    * MULLIKEN POPULATION ANALYSIS *
                    ********************************

-----------------------
MULLIKEN ATOMIC CHARGES
-----------------------
   0 O :   -0.454467
   1 O :   -0.452763
   2 N :   -0.226429
   3 C :    0.068727
   4 C :    0.010581
   5 C :    0.116159
   6 C :   -0.172270
   7 C :   -0.072586
   8 C :    0.033584
   9 C :   -0.116242
  10 C :    0.027827
  11 H :   -0.085622
  12 H :   -0.088777
  13 H :   -0.042813
  14 H :   -0.020708
  15 H :   -0.198790
  16 H :   -0.192782
  17 H :   -0.191992
  18 H :    0.037788
  19 H :    0.021575
Sum of atomic charges:   -2.0000000

--------------------------------
MULLIKEN REDUCED ORBITAL CHARGES
--------------------------------
  0 O s       :     3.709203  s :     3.709203
      pz      :     1.566457  p :     4.732886
      px      :     1.715574
      py      :     1.450855
      dz2     :     0.001493  d :     0.012379
      dxz     :     0.000888
      dyz     :     0.002684
      dx2y2   :     0.003354
      dxy     :     0.003960
  1 O s       :     3.710458  s :     3.710458
      pz      :     1.544858  p :     4.729924
      px      :     1.385759
      py      :     1.799307
      dz2     :     0.001540  d :     0.012381
      dxz     :     0.003547
      dyz     :     0.000220
      dx2y2   :     0.004078
      dxy     :     0.002994
  2 N s       :     3.413387  s :     3.413387
      pz      :     1.455861  p :     3.794377
      px      :     1.304020
      py      :     1.034496
      dz2     :     0.002263  d :     0.018665
      dxz     :     0.002327
      dyz     :     0.007232
      dx2y2   :     0.004663
      dxy     :     0.002181
  3 C s       :     2.910100  s :     2.910100
      pz      :     0.974236  p :     2.985714
      px      :     1.090671
      py      :     0.920806
      dz2     :     0.003682  d :     0.035459
      dxz     :     0.011052
      dyz     :     0.008739
      dx2y2   :     0.006590
      dxy     :     0.005395
  4 C s       :     3.017118  s :     3.017118
      pz      :     1.091405  p :     2.929918
      px      :     0.888718
      py      :     0.949796
      dz2     :     0.002808  d :     0.042383
      dxz     :     0.005030
      dyz     :     0.010381
      dx2y2   :     0.012818
      dxy     :     0.011345
  5 C s       :     2.964111  s :     2.964111
      pz      :     1.028801  p :     2.872195
      px      :     0.816556
      py      :     1.026838
      dz2     :     0.006521  d :     0.047535
      dxz     :     0.011943
      dyz     :     0.010102
      dx2y2   :     0.013013
      dxy     :     0.005957
  6 C s       :     3.348393  s :     3.348393
      pz      :     1.197434  p :     2.794233
      px      :     0.943992
      py      :     0.652806
      dz2     :     0.002699  d :     0.029644
      dxz     :     0.005435
      dyz     :     0.003082
      dx2y2   :     0.008867
      dxy     :     0.009562
  7 C s       :     3.208109  s :     3.208109
      pz      :     1.168636  p :     2.829036
      px      :     0.880317
      py      :     0.780083
      dz2     :     0.003013  d :     0.035441
      dxz     :     0.007052
      dyz     :     0.004413
      dx2y2   :     0.009040
      dxy     :     0.011923
  8 C s       :     3.033109  s :     3.033109
      pz      :     0.964108  p :     2.850540
      px      :     0.875889
      py      :     1.010543
      dz2     :     0.005045  d :     0.082767
      dxz     :     0.009955
      dyz     :     0.015120
      dx2y2   :     0.030933
      dxy     :     0.021714
  9 C s       :     3.256087  s :     3.256087
      pz      :     1.174727  p :     2.829996
      px      :     0.841470
      py      :     0.813799
      dz2     :     0.002685  d :     0.030159
      dxz     :     0.006393
      dyz     :     0.002161
      dx2y2   :     0.009381
      dxy     :     0.009539
 10 C s       :     3.036085  s :     3.036085
      pz      :     0.965094  p :     2.853354
      px      :     0.910732
      py      :     0.977528
      dz2     :     0.005684  d :     0.082734
      dxz     :     0.019314
      dyz     :     0.005412
      dx2y2   :     0.020086
      dxy     :     0.032238
 11 H s       :     1.062923  s :     1.062923
      pz      :     0.007376  p :     0.022698
      px      :     0.005547
      py      :     0.009775
 12 H s       :     1.066330  s :     1.066330
      pz      :     0.006912  p :     0.022447
      px      :     0.004775
      py      :     0.010761
 13 H s       :     1.021784  s :     1.021784
      pz      :     0.006527  p :     0.021028
      px      :     0.003375
      py      :     0.011126
 14 H s       :     0.999496  s :     0.999496
      pz      :     0.007134  p :     0.021213
      px      :     0.004394
      py      :     0.009684
 15 H s       :     1.175671  s :     1.175671
      pz      :     0.007078  p :     0.023119
      px      :     0.005031
      py      :     0.011010
 16 H s       :     1.168560  s :     1.168560
      pz      :     0.007709  p :     0.024222
      px      :     0.006739
      py      :     0.009774
 17 H s       :     1.169025  s :     1.169025
      pz      :     0.006886  p :     0.022968
      px      :     0.005907
      py      :     0.010174
 18 H s       :     0.916590  s :     0.916590
      pz      :     0.015090  p :     0.045621
      px      :     0.010782
      py      :     0.019749
 19 H s       :     0.932982  s :     0.932982
      pz      :     0.017104  p :     0.045443
      px      :     0.011547
      py      :     0.016792


                     *******************************
                     * LOEWDIN POPULATION ANALYSIS *
                     *******************************

----------------------
LOEWDIN ATOMIC CHARGES
----------------------
   0 O :   -0.429558
   1 O :   -0.426729
   2 N :   -0.151089
   3 C :   -0.058184
   4 C :   -0.135502
   5 C :   -0.004639
   6 C :   -0.188769
   7 C :   -0.163301
   8 C :   -0.068980
   9 C :   -0.181349
  10 C :   -0.070031
  11 H :   -0.013750
  12 H :   -0.014957
  13 H :   -0.000876
  14 H :    0.009888
  15 H :   -0.042407
  16 H :   -0.042418
  17 H :   -0.042828
  18 H :    0.018293
  19 H :    0.007185

-------------------------------
LOEWDIN REDUCED ORBITAL CHARGES
-------------------------------
  0 O s       :     3.580681  s :     3.580681
      pz      :     1.574776  p :     4.826394
      px      :     1.736365
      py      :     1.515254
      dz2     :     0.003181  d :     0.022482
      dxz     :     0.001321
      dyz     :     0.003883
      dx2y2   :     0.006076
      dxy     :     0.008021
  1 O s       :     3.580810  s :     3.580810
      pz      :     1.555500  p :     4.823437
      px      :     1.466115
      py      :     1.801822
      dz2     :     0.003085  d :     0.022482
      dxz     :     0.005472
      dyz     :     0.000335
      dx2y2   :     0.008381
      dxy     :     0.005209
  2 N s       :     3.155384  s :     3.155384
      pz      :     1.496208  p :     3.952349
      px      :     1.324476
      py      :     1.131665
      dz2     :     0.003518  d :     0.043357
      dxz     :     0.004253
      dyz     :     0.016470
      dx2y2   :     0.013947
      dxy     :     0.005168
  3 C s       :     2.845843  s :     2.845843
      pz      :     1.013405  p :     3.115954
      px      :     1.067206
      py      :     1.035343
      dz2     :     0.010600  d :     0.096386
      dxz     :     0.029692
      dyz     :     0.023551
      dx2y2   :     0.020172
      dxy     :     0.012372
  4 C s       :     2.840283  s :     2.840283
      pz      :     1.094207  p :     3.181270
      px      :     0.994490
      py      :     1.092573
      dz2     :     0.007550  d :     0.113949
      dxz     :     0.010569
      dyz     :     0.023868
      dx2y2   :     0.038756
      dxy     :     0.033206
  5 C s       :     2.859908  s :     2.859908
      pz      :     1.054521  p :     3.032728
      px      :     0.905229
      py      :     1.072978
      dz2     :     0.015126  d :     0.112003
      dxz     :     0.029341
      dyz     :     0.024311
      dx2y2   :     0.032345
      dxy     :     0.010880
  6 C s       :     2.881036  s :     2.881036
      pz      :     1.166967  p :     3.220713
      px      :     1.052115
      py      :     1.001631
      dz2     :     0.007443  d :     0.087020
      dxz     :     0.012664
      dyz     :     0.006931
      dx2y2   :     0.028396
      dxy     :     0.031586
  7 C s       :     2.850691  s :     2.850691
      pz      :     1.139693  p :     3.213458
      px      :     1.057023
      py      :     1.016741
      dz2     :     0.007602  d :     0.099153
      dxz     :     0.016523
      dyz     :     0.009979
      dx2y2   :     0.029023
      dxy     :     0.036026
  8 C s       :     2.869087  s :     2.869087
      pz      :     0.952279  p :     2.995782
      px      :     1.027462
      py      :     1.016040
      dz2     :     0.012694  d :     0.204111
      dxz     :     0.021779
      dyz     :     0.030304
      dx2y2   :     0.083984
      dxy     :     0.055349
  9 C s       :     2.880502  s :     2.880502
      pz      :     1.143876  p :     3.212758
      px      :     1.051194
      py      :     1.017688
      dz2     :     0.007569  d :     0.088089
      dxz     :     0.015501
      dyz     :     0.004838
      dx2y2   :     0.030685
      dxy     :     0.029497
 10 C s       :     2.868694  s :     2.868694
      pz      :     0.950978  p :     2.997067
      px      :     0.985963
      py      :     1.060126
      dz2     :     0.013743  d :     0.204270
      dxz     :     0.039893
      dyz     :     0.011873
      dx2y2   :     0.051807
      dxy     :     0.086955
 11 H s       :     0.945735  s :     0.945735
      pz      :     0.021632  p :     0.068014
      px      :     0.018648
      py      :     0.027734
 12 H s       :     0.946907  s :     0.946907
      pz      :     0.020203  p :     0.068051
      px      :     0.015720
      py      :     0.032128
 13 H s       :     0.935243  s :     0.935243
      pz      :     0.021829  p :     0.065634
      px      :     0.010711
      py      :     0.033094
 14 H s       :     0.924884  s :     0.924884
      pz      :     0.023679  p :     0.065228
      px      :     0.013501
      py      :     0.028048
 15 H s       :     0.969711  s :     0.969711
      pz      :     0.022227  p :     0.072696
      px      :     0.016295
      py      :     0.034174
 16 H s       :     0.969728  s :     0.969728
      pz      :     0.022356  p :     0.072690
      px      :     0.021269
      py      :     0.029066
 17 H s       :     0.971341  s :     0.971341
      pz      :     0.021580  p :     0.071487
      px      :     0.016900
      py      :     0.033006
 18 H s       :     0.858029  s :     0.858029
      pz      :     0.043062  p :     0.123678
      px      :     0.028931
      py      :     0.051685
 19 H s       :     0.867361  s :     0.867361
      pz      :     0.052598  p :     0.125454
      px      :     0.031552
      py      :     0.041304


                      *****************************
                      * MAYER POPULATION ANALYSIS *
                      *****************************

  NA   - Mulliken gross atomic population
  ZA   - Total nuclear charge
  QA   - Mulliken gross atomic charge
  VA   - Mayer's total valence
  BVA  - Mayer's bonded valence
  FA   - Mayer's free valence

  ATOM       NA         ZA         QA         VA         BVA        FA
  0 O      8.4545     8.0000    -0.4545     2.0842     2.0842     0.0000
  1 O      8.4528     8.0000    -0.4528     2.0845     2.0845    -0.0000
  2 N      7.2264     7.0000    -0.2264     3.0199     3.0199     0.0000
  3 C      5.9313     6.0000     0.0687     3.9224     3.9224    -0.0000
  4 C      5.9894     6.0000     0.0106     3.7867     3.7867    -0.0000
  5 C      5.8838     6.0000     0.1162     3.9135     3.9135    -0.0000
  6 C      6.1723     6.0000    -0.1723     3.6016     3.6016    -0.0000
  7 C      6.0726     6.0000    -0.0726     3.6581     3.6581     0.0000
  8 C      5.9664     6.0000     0.0336     4.1105     4.1105    -0.0000
  9 C      6.1162     6.0000    -0.1162     3.6168     3.6168     0.0000
 10 C      5.9722     6.0000     0.0278     4.1023     4.1023     0.0000
 11 H      1.0856     1.0000    -0.0856     0.9882     0.9882    -0.0000
 12 H      1.0888     1.0000    -0.0888     1.0101     1.0101    -0.0000
 13 H      1.0428     1.0000    -0.0428     1.0258     1.0258     0.0000
 14 H      1.0207     1.0000    -0.0207     1.0086     1.0086     0.0000
 15 H      1.1988     1.0000    -0.1988     0.9942     0.9942    -0.0000
 16 H      1.1928     1.0000    -0.1928     0.9383     0.9383    -0.0000
 17 H      1.1920     1.0000    -0.1920     0.9812     0.9812    -0.0000
 18 H      0.9622     1.0000     0.0378     1.0341     1.0341     0.0000
 19 H      0.9784     1.0000     0.0216     1.0534     1.0534     0.0000

  Mayer bond orders larger than 0.100000
B(  0-O ,  8-C ) :   1.7797 B(  1-O , 10-C ) :   1.7823 B(  2-N ,  5-C ) :   1.0485 
B(  2-N , 18-H ) :   0.9693 B(  2-N , 19-H ) :   0.9573 B(  3-C ,  4-C ) :   1.0458 
B(  3-C ,  5-C ) :   1.0761 B(  3-C , 11-H ) :   0.8851 B(  3-C , 12-H ) :   0.8805 
B(  4-C ,  6-C ) :   1.2331 B(  4-C ,  7-C ) :   1.3489 B(  5-C , 13-H ) :   0.9208 
B(  5-C , 14-H ) :   0.9301 B(  6-C ,  8-C ) :   1.2320 B(  6-C , 15-H ) :   0.9164 
B(  7-C ,  9-C ) :   1.2368 B(  7-C , 16-H ) :   0.9359 B(  8-C , 10-C ) :   0.9705 
B(  9-C , 10-C ) :   1.2453 B(  9-C , 17-H ) :   0.9147 

-------
TIMINGS
-------

Total SCF time: 0 days 0 hours 0 min 32 sec 

Total time                  ....      32.612 sec
Sum of individual times     ....      32.385 sec  ( 99.3%)

Fock matrix formation       ....      31.640 sec  ( 97.0%)
  XC integration            ....       3.647 sec  ( 11.5% of F)
    Basis function eval.    ....       1.124 sec  ( 30.8% of XC)
    Density eval.           ....       0.924 sec  ( 25.3% of XC)
    XC-Functional eval.     ....       0.191 sec  (  5.2% of XC)
    XC-Potential eval.      ....       0.903 sec  ( 24.7% of XC)
Diagonalization             ....       0.103 sec  (  0.3%)
Density matrix formation    ....       0.010 sec  (  0.0%)
Population analysis         ....       0.007 sec  (  0.0%)
Initial guess               ....       0.011 sec  (  0.0%)
Orbital Transformation      ....       0.000 sec  (  0.0%)
Orbital Orthonormalization  ....       0.008 sec  (  0.0%)
DIIS solution               ....       0.046 sec  (  0.1%)
SOSCF solution              ....       0.120 sec  (  0.4%)
Grid generation             ....       0.450 sec  (  1.4%)

Maximum memory used throughout the entire SCF-calculation: 237.1 MB


-------------------------------------------------------------------------------
                          DFT DISPERSION CORRECTION                            
                                                                               
                              DFTD3 V3.1  Rev 1                                
                          USING Becke-Johnson damping                          
-------------------------------------------------------------------------------
The PBE functional is recognized
Active option DFTDOPT                   ...         4   

molecular C6(AA) [au] = 4279.946294 


            DFT-D V3
 parameters
 s6 scaling factor         :     1.0000 
 a1 scaling factor         :     0.4289 
 s8 scaling factor         :     0.7875 
 a2 scaling factor         :     4.4407 
 ad hoc parameters k1-k3   :    16.0000     1.3333    -4.0000 

 Edisp/kcal,au: -13.187455910331  -0.021015546456 
 E6   /kcal   :  -9.290743739 
 E8   /kcal   :  -3.896712171 
 % E8         :  29.548627101 

-------------------------   ----------------
Dispersion correction           -0.021015546
-------------------------   ----------------


-------------------------   --------------------
FINAL SINGLE POINT ENERGY      -514.365606296938
-------------------------   --------------------


                            ***************************************
                            *     ORCA property calculations      *
                            ***************************************

                                    ---------------------
                                    Active property flags
                                    ---------------------
   (+) Dipole Moment


------------------------------------------------------------------------------
                       ORCA ELECTRIC PROPERTIES CALCULATION
------------------------------------------------------------------------------

Dipole Moment Calculation                       ... on
Quadrupole Moment Calculation                   ... off
Polarizability Calculation                      ... off
GBWName                                         ... M0005.gbw
Electron density                                ... M0005.scfp
The origin for moment calculation is the CENTER OF MASS  = ( 0.218360, -0.028933  0.012221)

-------------
DIPOLE MOMENT
-------------
                                X             Y             Z
Electronic contribution:     13.26345      -1.80602       0.54176
Nuclear contribution   :    -17.46882       2.31461      -0.97771
                        -----------------------------------------
Total Dipole Moment    :     -4.20537       0.50859      -0.43595
                        -----------------------------------------
Magnitude (a.u.)       :      4.25839
Magnitude (Debye)      :     10.82396



--------------------
Rotational spectrum 
--------------------
 
Rotational constants in cm-1:     0.086728     0.018761     0.016150 
Rotational constants in MHz :  2600.053313   562.437833   484.173792 

 Dipole components along the rotational axes: 
x,y,z [a.u.] :    -4.208246    -0.477787    -0.443003 
x,y,z [Debye]:   -10.696512    -1.214437    -1.126024 

 

Timings for individual modules:

Sum of individual times         ...       33.509 sec (=   0.558 min)
GTO integral calculation        ...        0.507 sec (=   0.008 min)   1.5 %
SCF iterations                  ...       33.002 sec (=   0.550 min)  98.5 %



                             ****ORCA TERMINATED NORMALLY****
TOTAL RUN TIME: 0 days 0 hours 8 minutes 12 seconds 546 msec
