
                                 *****************
                                 * O   R   C   A *
                                 *****************

                                            #,                                       
                                            ###                                      
                                            ####                                     
                                            #####                                    
                                            ######                                   
                                           ########,                                 
                                     ,,################,,,,,                         
                               ,,#################################,,                 
                          ,,##########################################,,             
                       ,#########################################, ''#####,          
                    ,#############################################,,   '####,        
                  ,##################################################,,,,####,       
                ,###########''''           ''''###############################       
              ,#####''   ,,,,##########,,,,          '''####'''          '####       
            ,##' ,,,,###########################,,,                        '##       
           ' ,,###''''                  '''############,,,                           
         ,,##''                                '''############,,,,        ,,,,,,###''
      ,#''                                            '''#######################'''  
     '                                                          ''''####''''         
             ,#######,   #######,   ,#######,      ##                                
            ,#'     '#,  ##    ##  ,#'     '#,    #''#        ######   ,####,        
            ##       ##  ##   ,#'  ##            #'  '#       #        #'  '#        
            ##       ##  #######   ##           ,######,      #####,   #    #        
            '#,     ,#'  ##    ##  '#,     ,#' ,#      #,         ##   #,  ,#        
             '#######'   ##     ##  '#######'  #'      '#     #####' # '####'        



                  #######################################################
                  #                        -***-                        #
                  #          Department of theory and spectroscopy      #
                  #    Directorship and core code : Frank Neese         #
                  #        Max Planck Institute fuer Kohlenforschung    #
                  #                Kaiser Wilhelm Platz 1               #
                  #                 D-45470 Muelheim/Ruhr               #
                  #                      Germany                        #
                  #                                                     #
                  #                  All rights reserved                #
                  #                        -***-                        #
                  #######################################################


                         Program Version 5.0.1 -  RELEASE  -


 With contributions from (in alphabetic order):
   Daniel Aravena         : Magnetic Suceptibility
   Michael Atanasov       : Ab Initio Ligand Field Theory (pilot matlab implementation)
   Alexander A. Auer      : GIAO ZORA, VPT2 properties, NMR spectrum
   Ute Becker             : Parallelization
   Giovanni Bistoni       : ED, misc. LED, open-shell LED, HFLD
   Martin Brehm           : Molecular dynamics
   Dmytro Bykov           : SCF Hessian
   Vijay G. Chilkuri      : MRCI spin determinant printing, contributions to CSF-ICE
   Dipayan Datta          : RHF DLPNO-CCSD density
   Achintya Kumar Dutta   : EOM-CC, STEOM-CC
   Dmitry Ganyushin       : Spin-Orbit,Spin-Spin,Magnetic field MRCI
   Miquel Garcia          : C-PCM and meta-GGA Hessian, CC/C-PCM, Gaussian charge scheme
   Yang Guo               : DLPNO-NEVPT2, F12-NEVPT2, CIM, IAO-localization
   Andreas Hansen         : Spin unrestricted coupled pair/coupled cluster methods
   Benjamin Helmich-Paris : MC-RPA, TRAH-SCF, COSX integrals
   Lee Huntington         : MR-EOM, pCC
   Robert Izsak           : Overlap fitted RIJCOSX, COSX-SCS-MP3, EOM
   Marcus Kettner         : VPT2
   Christian Kollmar      : KDIIS, OOCD, Brueckner-CCSD(T), CCSD density, CASPT2, CASPT2-K
   Simone Kossmann        : Meta GGA functionals, TD-DFT gradient, OOMP2, MP2 Hessian
   Martin Krupicka        : Initial AUTO-CI
   Lucas Lang             : DCDCAS
   Marvin Lechner         : AUTO-CI (C++ implementation), FIC-MRCC
   Dagmar Lenk            : GEPOL surface, SMD
   Dimitrios Liakos       : Extrapolation schemes; Compound Job, initial MDCI parallelization
   Dimitrios Manganas     : Further ROCIS development; embedding schemes
   Dimitrios Pantazis     : SARC Basis sets
   Anastasios Papadopoulos: AUTO-CI, single reference methods and gradients
   Taras Petrenko         : DFT Hessian,TD-DFT gradient, ASA, ECA, R-Raman, ABS, FL, XAS/XES, NRVS
   Peter Pinski           : DLPNO-MP2, DLPNO-MP2 Gradient
   Christoph Reimann      : Effective Core Potentials
   Marius Retegan         : Local ZFS, SOC
   Christoph Riplinger    : Optimizer, TS searches, QM/MM, DLPNO-CCSD(T), (RO)-DLPNO pert. Triples
   Tobias Risthaus        : Range-separated hybrids, TD-DFT gradient, RPA, STAB
   Michael Roemelt        : Original ROCIS implementation
   Masaaki Saitow         : Open-shell DLPNO-CCSD energy and density
   Barbara Sandhoefer     : DKH picture change effects
   Avijit Sen             : IP-ROCIS
   Kantharuban Sivalingam : CASSCF convergence, NEVPT2, FIC-MRCI
   Bernardo de Souza      : ESD, SOC TD-DFT
   Georgi Stoychev        : AutoAux, RI-MP2 NMR, DLPNO-MP2 response
   Willem Van den Heuvel  : Paramagnetic NMR
   Boris Wezisla          : Elementary symmetry handling
   Frank Wennmohs         : Technical directorship


 We gratefully acknowledge several colleagues who have allowed us to
 interface, adapt or use parts of their codes:
   Stefan Grimme, W. Hujo, H. Kruse, P. Pracht,  : VdW corrections, initial TS optimization,
                  C. Bannwarth, S. Ehlert          DFT functionals, gCP, sTDA/sTD-DF
   Ed Valeev, F. Pavosevic, A. Kumar             : LibInt (2-el integral package), F12 methods
   Garnet Chan, S. Sharma, J. Yang, R. Olivares  : DMRG
   Ulf Ekstrom                                   : XCFun DFT Library
   Mihaly Kallay                                 : mrcc  (arbitrary order and MRCC methods)
   Jiri Pittner, Ondrej Demel                    : Mk-CCSD
   Frank Weinhold                                : gennbo (NPA and NBO analysis)
   Christopher J. Cramer and Donald G. Truhlar   : smd solvation model
   Lars Goerigk                                  : TD-DFT with DH, B97 family of functionals
   V. Asgeirsson, H. Jonsson                     : NEB implementation
   FAccTs GmbH                                   : IRC, NEB, NEB-TS, DLPNO-Multilevel, CI-OPT
                                                   MM, QMMM, 2- and 3-layer-ONIOM, Crystal-QMMM,
                                                   LR-CPCM, SF, NACMEs, symmetry and pop. for TD-DFT,
                                                   nearIR, NL-DFT gradient (VV10), updates on ESD,
                                                   ML-optimized integration grids
   S Lehtola, MJT Oliveira, MAL Marques          : LibXC Library
   Liviu Ungur et al                             : ANISO software


 Your calculation uses the libint2 library for the computation of 2-el integrals
 For citations please refer to: http://libint.valeyev.net

 Your ORCA version has been built with support for libXC version: 5.1.0
 For citations please refer to: https://tddft.org/programs/libxc/

 This ORCA versions uses:
   CBLAS   interface :  Fast vector & matrix operations
   LAPACKE interface :  Fast linear algebra routines
   SCALAPACK package :  Parallel linear algebra routines
   Shared memory     :  Shared parallel matrices
   BLAS/LAPACK       :  OpenBLAS 0.3.15  USE64BITINT DYNAMIC_ARCH NO_AFFINITY Haswell SINGLE_THREADED
        Core in use  :  Haswell
   Copyright (c) 2011-2014, The OpenBLAS Project


Your calculation utilizes the atom-pairwise dispersion correction
with the Becke-Johnson damping scheme (D3BJ)
Cite in your paper:
S.Grimme, S.Ehrlich, L.Goerigk, J Comput Chem, (2011), 32, 1456–1465 
S.Grimme, J.Antony, S.Ehrlich and H.Krieg, J.Chem.Phys., 132, (2010), 154104 
   

================================================================================

----- Orbital basis set information -----
Your calculation utilizes the basis: def2-TZVP
   F. Weigend and R. Ahlrichs, Phys. Chem. Chem. Phys. 7, 3297 (2005).

----- AuxJ basis set information -----
Your calculation utilizes the auxiliary basis: def2/J
   F. Weigend, Phys. Chem. Chem. Phys. 8, 1057 (2006).

================================================================================
                                        WARNINGS
                       Please study these warnings very carefully!
================================================================================


INFO   : the flag for use of the SHARK integral package has been found!

Your calculation utilizes the atom-pairwise dispersion correction
with the Becke-Johnson damping scheme (D3BJ)
Cite in your paper:
S.Grimme, S.Ehrlich, L.Goerigk, J Comput Chem, (2011), 32, 1456–1465 
S.Grimme, J.Antony, S.Ehrlich and H.Krieg, J.Chem.Phys., 132, (2010), 154104 
   

================================================================================

----- Orbital basis set information -----
Your calculation utilizes the basis: def2-TZVP
   F. Weigend and R. Ahlrichs, Phys. Chem. Chem. Phys. 7, 3297 (2005).

----- AuxJ basis set information -----
Your calculation utilizes the auxiliary basis: def2/J
   F. Weigend, Phys. Chem. Chem. Phys. 8, 1057 (2006).

================================================================================
                                        WARNINGS
                       Please study these warnings very carefully!
================================================================================


INFO   : the flag for use of the SHARK integral package has been found!

Your calculation utilizes the atom-pairwise dispersion correction
with the Becke-Johnson damping scheme (D3BJ)
Cite in your paper:
S.Grimme, S.Ehrlich, L.Goerigk, J Comput Chem, (2011), 32, 1456–1465 
S.Grimme, J.Antony, S.Ehrlich and H.Krieg, J.Chem.Phys., 132, (2010), 154104 
   

================================================================================

----- Orbital basis set information -----
Your calculation utilizes the basis: def2-TZVP
   F. Weigend and R. Ahlrichs, Phys. Chem. Chem. Phys. 7, 3297 (2005).

----- AuxJ basis set information -----
Your calculation utilizes the auxiliary basis: def2/J
   F. Weigend, Phys. Chem. Chem. Phys. 8, 1057 (2006).

================================================================================
                                        WARNINGS
                       Please study these warnings very carefully!
================================================================================


INFO   : the flag for use of the SHARK integral package has been found!

Your calculation utilizes the atom-pairwise dispersion correction
with the Becke-Johnson damping scheme (D3BJ)
Cite in your paper:
S.Grimme, S.Ehrlich, L.Goerigk, J Comput Chem, (2011), 32, 1456–1465 
S.Grimme, J.Antony, S.Ehrlich and H.Krieg, J.Chem.Phys., 132, (2010), 154104 
   

================================================================================

----- Orbital basis set information -----
Your calculation utilizes the basis: def2-TZVP
   F. Weigend and R. Ahlrichs, Phys. Chem. Chem. Phys. 7, 3297 (2005).

----- AuxJ basis set information -----
Your calculation utilizes the auxiliary basis: def2/J
   F. Weigend, Phys. Chem. Chem. Phys. 8, 1057 (2006).

================================================================================
                                        WARNINGS
                       Please study these warnings very carefully!
================================================================================


INFO   : the flag for use of the SHARK integral package has been found!

Your calculation utilizes the atom-pairwise dispersion correction
with the Becke-Johnson damping scheme (D3BJ)
Cite in your paper:
S.Grimme, S.Ehrlich, L.Goerigk, J Comput Chem, (2011), 32, 1456–1465 
S.Grimme, J.Antony, S.Ehrlich and H.Krieg, J.Chem.Phys., 132, (2010), 154104 
   

================================================================================

----- Orbital basis set information -----
Your calculation utilizes the basis: def2-TZVP
   F. Weigend and R. Ahlrichs, Phys. Chem. Chem. Phys. 7, 3297 (2005).

----- AuxJ basis set information -----
Your calculation utilizes the auxiliary basis: def2/J
   F. Weigend, Phys. Chem. Chem. Phys. 8, 1057 (2006).

================================================================================
                                        WARNINGS
                       Please study these warnings very carefully!
================================================================================


INFO   : the flag for use of the SHARK integral package has been found!

================================================================================
                                       INPUT FILE
================================================================================
NAME = ex_alt.inp
|  1> ! PBE D3 def2-TZVP opt NOAUTOSTART
|  2> 
|  3> %base "M00018"
|  4> %pal nprocs=8 end
|  5> %geom maxiter=75 end
|  6> * xyz 0 1
|  7> C       -0.074381     -1.017724     -0.365733
|  8> C       -1.104295      1.582582     -0.145174
|  9> C       -1.404297     -0.807838     -0.028468
| 10> C        0.764127      0.082008     -0.598285
| 11> C        0.237318      1.380673     -0.485702
| 12> C       -1.918680      0.480698      0.082127
| 13> O       -3.237740      0.612654      0.417989
| 14> O       -2.212182     -1.885801      0.196219
| 15> C        2.216363     -0.129253     -0.958825
| 16> C        3.082353     -0.623390      0.210232
| 17> N        3.177358      0.336596      1.311590
| 18> H        0.300199     -2.034529     -0.445753
| 19> H       -1.486399      2.594964     -0.065194
| 20> H        0.872918      2.245792     -0.664027
| 21> H       -3.446612      1.561874      0.452057
| 22> H       -3.082382     -1.496456      0.413871
| 23> H        2.639984      0.798710     -1.364264
| 24> H        2.266265     -0.859784     -1.776551
| 25> H        2.697246     -1.571127      0.602530
| 26> H        4.094823     -0.820415     -0.159063
| 27> H        2.243593      0.479729      1.700370
| 28> H        3.467199      1.243717      0.950192
| 29> *
| 30> 
| 31> $new_job
| 32> 
| 33> ! PBE D3 def2-TZVP opt NOAUTOSTART
| 34> 
| 35> %base "M00016"
| 36> %pal nprocs=8 end
| 37> %geom maxiter=75 end
| 38> * xyz 0 1
| 39> C       -0.046652     -0.911071     -0.532758
| 40> C       -1.135871      1.590984      0.120364
| 41> C       -1.381293     -0.790692     -0.171165
| 42> C        0.766734      0.230357     -0.570469
| 43> C        0.210423      1.479188     -0.241853
| 44> C       -1.925139      0.448711      0.153453
| 45> O       -3.247017      0.492122      0.501091
| 46> O       -2.163985     -1.909307     -0.134001
| 47> C        2.225367      0.115784     -0.948125
| 48> C        3.187017      0.283614      0.238177
| 49> N        3.056643     -0.765978      1.249695
| 50> H        0.350146     -1.891510     -0.780768
| 51> H       -1.540199      2.566466      0.369856
| 52> H        0.828192      2.374941     -0.266569
| 53> H       -3.475863      1.416560      0.698663
| 54> H       -3.044027     -1.580947      0.138402
| 55> H        2.448055      0.881624     -1.702239
| 56> H        2.410633     -0.847709     -1.440388
| 57> H        4.216463      0.270880     -0.136514
| 58> H        3.036819      1.255781      0.720669
| 59> H        3.152908     -1.679303      0.806926
| 60> H        2.104875     -0.748710      1.621641
| 61> *
| 62> 
| 63> $new_job
| 64> 
| 65> ! PBE D3 def2-TZVP opt NOAUTOSTART
| 66> 
| 67> %base "M00017"
| 68> %pal nprocs=8 end
| 69> %geom maxiter=75 end
| 70> * xyz 0 1
| 71> C       -0.096290     -0.980680     -0.380034
| 72> C       -1.093748      1.628719     -0.119334
| 73> C       -1.426063     -0.761674     -0.034967
| 74> C        0.753785      0.116531     -0.597470
| 75> C        0.242883      1.419760     -0.465428
| 76> C       -1.916883      0.534394      0.093448
| 77> O       -3.223537      0.738544      0.432986
| 78> O       -2.294151     -1.794580      0.190192
| 79> C        2.204965     -0.098569     -0.963399
| 80> C        3.061932     -0.647382      0.187695
| 81> N        3.161017      0.263425      1.328196
| 82> H        0.289586     -1.990431     -0.482505
| 83> H       -1.488408      2.634977     -0.017445
| 84> H        0.883530      2.283311     -0.631270
| 85> H       -3.593589     -0.161702      0.527334
| 86> H       -1.807899     -2.628635      0.073169
| 87> H        2.641810      0.838598     -1.331885
| 88> H        2.246887     -0.798253     -1.808050
| 89> H        2.665647     -1.606474      0.539090
| 90> H        4.073806     -0.840366     -0.185405
| 91> H        2.224215      0.433815      1.699234
| 92> H        3.495319      1.172886      1.011874
| 93> *
| 94> 
| 95> $new_job
| 96> 
| 97> ! PBE D3 def2-TZVP opt NOAUTOSTART
| 98> 
| 99> %base "M00019"
|100> %pal nprocs=8 end
|101> %geom maxiter=75 end
|102> * xyz 0 1
|103> C       -0.097842     -0.920923     -0.507016
|104> C       -1.088360      1.633502      0.099122
|105> C       -1.428703     -0.744990     -0.141290
|106> C        0.756518      0.192278     -0.571721
|107> C        0.248624      1.467925     -0.268154
|108> C       -1.915788      0.523640      0.159826
|109> O       -3.223202      0.684992      0.518892
|110> O       -2.301868     -1.795143     -0.062972
|111> C        2.207753      0.023049     -0.960862
|112> C        3.195356      0.258187      0.192596
|113> N        3.050100     -0.699765      1.289265
|114> H        0.284043     -1.909754     -0.741520
|115> H       -1.479477      2.618504      0.334658
|116> H        0.893223      2.343263     -0.316124
|117> H       -3.596815     -0.218147      0.490285
|118> H       -1.826082     -2.604210     -0.317039
|119> H        2.430202      0.726552     -1.773489
|120> H        2.368378     -0.977823     -1.382028
|121> H        4.216832      0.180995     -0.195948
|122> H        3.085180      1.271284      0.594843
|123> H        3.090981     -1.649669      0.924310
|124> H        2.118048     -0.597443      1.694836
|125> *
|126> 
|127> $new_job
|128> 
|129> ! PBE D3 def2-TZVP opt NOAUTOSTART
|130> 
|131> %base "M00009"
|132> %pal nprocs=8 end
|133> %geom maxiter=75 end
|134> * xyz 0 1
|135> C       -0.049461     -0.828565     -0.561212
|136> C       -1.172466      1.627940      0.197374
|137> C       -1.385624     -0.747650     -0.184629
|138> C        0.742258      0.331521     -0.562141
|139> C        0.170509      1.557196     -0.178807
|140> C       -1.939028      0.473028      0.191172
|141> O       -3.251769      0.541284      0.560998
|142> O       -2.197998     -1.848023     -0.165013
|143> C        2.201740      0.257709     -0.950510
|144> C        3.155311      0.222943      0.252043
|145> N        3.032140     -1.008935      1.033705
|146> H        0.391890     -1.778825     -0.848292
|147> H       -1.615604      2.574160      0.491949
|148> H        0.769067      2.465545     -0.172506
|149> H       -3.575698     -0.377350      0.474120
|150> H       -1.673244     -2.611967     -0.460856
|151> H        2.440663      1.130512     -1.571924
|152> H        2.374118     -0.616184     -1.592177
|153> H        4.185601      0.294398     -0.113247
|154> H        2.980476      1.084018      0.907054
|155> H        2.091859     -1.052374      1.430225
|156> H        3.664593     -0.960214      1.832092
|157> *
|158> 
|159> 
|160> 
|161> 
|162>                          ****END OF INPUT****
================================================================================


                 $$$$$$$$$$$$$$$$$$$$$$$$$$$$$$$$$$$$$$$$$$$$$$ 
                 $ THERE ARE  5 JOBS TO BE PROCESSED THIS RUN $
                 $$$$$$$$$$$$$$$$$$$$$$$$$$$$$$$$$$$$$$$$$$$$$$ 




                 $$$$$$$$$$$$$$$$  JOB NUMBER  1 $$$$$$$$$$$$$$


                       *****************************
                       * Geometry Optimization Run *
                       *****************************

Geometry optimization settings:
Update method            Update   .... BFGS
Choice of coordinates    CoordSys .... Z-matrix Internals
Initial Hessian          InHess   .... Almoef's Model

Convergence Tolerances:
Energy Change            TolE     ....  5.0000e-06 Eh
Max. Gradient            TolMAXG  ....  3.0000e-04 Eh/bohr
RMS Gradient             TolRMSG  ....  1.0000e-04 Eh/bohr
Max. Displacement        TolMAXD  ....  4.0000e-03 bohr
RMS Displacement         TolRMSD  ....  2.0000e-03 bohr
Strict Convergence                ....  False
------------------------------------------------------------------------------
                        ORCA OPTIMIZATION COORDINATE SETUP
------------------------------------------------------------------------------

The optimization will be done in new redundant internal coordinates
Making redundant internal coordinates   ...  (new redundants) done
Evaluating the initial hessian          ...  (Almloef) done
Evaluating the coordinates              ...  done
Calculating the B-matrix                .... done
Calculating the G-matrix                .... done
Diagonalizing the G-matrix              .... done
Small eigenvalue found = 1.848e-02
Small eigenvalue found = 2.946e-02
The first mode is                       ....   46
The number of degrees of freedom        ....   60

    -----------------------------------------------------------------
                    Redundant Internal Coordinates


    -----------------------------------------------------------------
         Definition                    Initial Value    Approx d2E/dq
    -----------------------------------------------------------------
      1. B(C   2,C   0)                  1.3880         0.629460   
      2. B(C   3,C   0)                  1.4024         0.597082   
      3. B(C   4,C   3)                  1.4060         0.589210   
      4. B(C   4,C   1)                  1.3988         0.604913   
      5. B(C   5,C   2)                  1.3918         0.620647   
      6. B(C   5,C   1)                  1.3889         0.627331   
      7. B(O   6,C   5)                  1.3675         0.607753   
      8. B(O   7,C   2)                  1.3657         0.611825   
      9. B(C   8,C   3)                  1.5112         0.400343   
     10. B(C   9,C   8)                  1.5365         0.364772   
     11. B(N  10,C   9)                  1.4641         0.426240   
     12. B(H  11,C   0)                  1.0866         0.364684   
     13. B(H  12,C   1)                  1.0850         0.366718   
     14. B(H  13,C   4)                  1.0882         0.362465   
     15. B(H  14,O   6)                  0.9725         0.496572   
     16. B(H  15,O   7)                  0.9779         0.486937   
     17. B(H  16,C   8)                  1.0977         0.350053   
     18. B(H  17,C   8)                  1.0977         0.350117   
     19. B(H  18,C   9)                  1.0956         0.352725   
     20. B(H  19,C   9)                  1.0956         0.352795   
     21. B(H  20,N  10)                  1.0215         0.414740   
     22. B(H  21,N  10)                  1.0186         0.419297   
     23. A(C   2,C   0,C   3)          119.6452         0.432312   
     24. A(C   3,C   0,H  11)          121.0323         0.351419   
     25. A(C   2,C   0,H  11)          119.3225         0.354574   
     26. A(C   4,C   1,H  12)          119.3656         0.352525   
     27. A(C   5,C   1,H  12)          121.4445         0.354705   
     28. A(C   4,C   1,C   5)          119.1899         0.433062   
     29. A(C   0,C   2,C   5)          120.8921         0.435332   
     30. A(C   5,C   2,O   7)          119.9365         0.430281   
     31. A(C   0,C   2,O   7)          119.1714         0.431371   
     32. A(C   4,C   3,C   8)          120.5521         0.397959   
     33. A(C   0,C   3,C   8)          120.3013         0.398888   
     34. A(C   0,C   3,C   4)          119.1460         0.427215   
     35. A(C   1,C   4,C   3)          120.8104         0.428214   
     36. A(C   3,C   4,H  13)          120.1552         0.350271   
     37. A(C   1,C   4,H  13)          119.0344         0.351831   
     38. A(C   1,C   5,O   6)          121.9523         0.430592   
     39. A(C   1,C   5,C   2)          120.3164         0.435067   
     40. A(C   2,C   5,O   6)          117.7313         0.429765   
     41. A(C   5,O   6,H  14)          108.0558         0.365950   
     42. A(C   2,O   7,H  15)          104.4047         0.365141   
     43. A(C   3,C   8,C   9)          113.8954         0.366183   
     44. A(C   3,C   8,H  17)          108.3290         0.326518   
     45. A(C   9,C   8,H  16)          109.5962         0.321558   
     46. A(C   3,C   8,H  16)          109.9260         0.326508   
     47. A(C   9,C   8,H  17)          109.0967         0.321568   
     48. A(H  16,C   8,H  17)          105.6596         0.288279   
     49. A(C   8,C   9,H  19)          108.7976         0.321969   
     50. A(N  10,C   9,H  18)          108.7015         0.328331   
     51. A(C   8,C   9,H  18)          110.6411         0.321959   
     52. A(N  10,C   9,H  19)          108.1504         0.328341   
     53. A(C   8,C   9,N  10)          113.4568         0.367830   
     54. A(H  18,C   9,H  19)          106.8556         0.288967   
     55. A(H  20,N  10,H  21)          105.6854         0.299703   
     56. A(C   9,N  10,H  21)          109.6031         0.334981   
     57. A(C   9,N  10,H  20)          108.5931         0.334374   
     58. D(C   5,C   2,C   0,C   3)      0.0160         0.027469   
     59. D(C   5,C   2,C   0,H  11)   -179.9547         0.027469   
     60. D(O   7,C   2,C   0,H  11)      0.0448         0.027469   
     61. D(O   7,C   2,C   0,C   3)   -179.9846         0.027469   
     62. D(C   8,C   3,C   0,C   2)    179.6582         0.024564   
     63. D(C   4,C   3,C   0,C   2)     -0.0621         0.024564   
     64. D(C   4,C   3,C   0,H  11)    179.9080         0.024564   
     65. D(C   8,C   3,C   0,H  11)     -0.3716         0.024564   
     66. D(C   1,C   4,C   3,C   8)   -179.6506         0.023888   
     67. D(C   1,C   4,C   3,C   0)      0.0690         0.023888   
     68. D(H  13,C   4,C   1,H  12)      0.0066         0.025248   
     69. D(C   3,C   4,C   1,C   5)     -0.0286         0.025248   
     70. D(H  13,C   4,C   1,C   5)    179.9511         0.025248   
     71. D(H  13,C   4,C   3,C   0)   -179.9105         0.023888   
     72. D(C   3,C   4,C   1,H  12)   -179.9731         0.025248   
     73. D(H  13,C   4,C   3,C   8)      0.3698         0.023888   
     74. D(O   6,C   5,C   2,O   7)      0.0050         0.026658   
     75. D(C   1,C   5,C   2,O   7)   -179.9743         0.026658   
     76. D(O   6,C   5,C   1,H  12)     -0.0538         0.027272   
     77. D(O   6,C   5,C   1,C   4)   -179.9971         0.027272   
     78. D(C   1,C   5,C   2,C   0)      0.0251         0.026658   
     79. D(O   6,C   5,C   2,C   0)   -179.9956         0.026658   
     80. D(C   2,C   5,C   1,H  12)    179.9246         0.027272   
     81. D(C   2,C   5,C   1,C   4)     -0.0187         0.027272   
     82. D(H  14,O   6,C   5,C   2)   -179.7705         0.027023   
     83. D(H  14,O   6,C   5,C   1)      0.2084         0.027023   
     84. D(H  15,O   7,C   2,C   5)     -0.0657         0.027412   
     85. D(H  15,O   7,C   2,C   0)    179.9349         0.027412   
     86. D(H  16,C   8,C   3,C   0)    164.7169         0.011894   
     87. D(C   9,C   8,C   3,C   4)    107.8551         0.011894   
     88. D(C   9,C   8,C   3,C   0)    -71.8613         0.011894   
     89. D(H  17,C   8,C   3,C   4)   -130.5622         0.011894   
     90. D(H  17,C   8,C   3,C   0)     49.7214         0.011894   
     91. D(H  16,C   8,C   3,C   4)    -15.5667         0.011894   
     92. D(H  19,C   9,C   8,H  16)    -60.6456         0.010656   
     93. D(H  19,C   9,C   8,C   3)    175.7537         0.010656   
     94. D(H  18,C   9,C   8,H  17)    -62.5015         0.010656   
     95. D(H  18,C   9,C   8,H  16)   -177.7446         0.010656   
     96. D(H  18,C   9,C   8,C   3)     58.6547         0.010656   
     97. D(N  10,C   9,C   8,H  17)    175.0220         0.010656   
     98. D(N  10,C   9,C   8,H  16)     59.7790         0.010656   
     99. D(H  19,C   9,C   8,H  17)     54.5974         0.010656   
    100. D(N  10,C   9,C   8,C   3)    -63.8217         0.010656   
    101. D(H  21,N  10,C   9,H  19)     68.5795         0.015490   
    102. D(H  21,N  10,C   9,H  18)   -175.7544         0.015490   
    103. D(H  21,N  10,C   9,C   8)    -52.2106         0.015490   
    104. D(H  20,N  10,C   9,H  19)   -176.4215         0.015490   
    105. D(H  20,N  10,C   9,H  18)    -60.7555         0.015490   
    106. D(H  20,N  10,C   9,C   8)     62.7883         0.015490   
    -----------------------------------------------------------------

Number of atoms                         .... 22
Number of degrees of freedom            .... 106

         *************************************************************
         *                GEOMETRY OPTIMIZATION CYCLE   1            *
         *************************************************************
---------------------------------
CARTESIAN COORDINATES (ANGSTROEM)
---------------------------------
  C     -0.074381   -1.017724   -0.365733
  C     -1.104295    1.582582   -0.145174
  C     -1.404297   -0.807838   -0.028468
  C      0.764127    0.082008   -0.598285
  C      0.237318    1.380673   -0.485702
  C     -1.918680    0.480698    0.082127
  O     -3.237740    0.612654    0.417989
  O     -2.212182   -1.885801    0.196219
  C      2.216363   -0.129253   -0.958825
  C      3.082353   -0.623390    0.210232
  N      3.177358    0.336596    1.311590
  H      0.300199   -2.034529   -0.445753
  H     -1.486399    2.594964   -0.065194
  H      0.872918    2.245792   -0.664027
  H     -3.446612    1.561874    0.452057
  H     -3.082382   -1.496456    0.413871
  H      2.639984    0.798710   -1.364264
  H      2.266265   -0.859784   -1.776551
  H      2.697246   -1.571127    0.602530
  H      4.094823   -0.820415   -0.159063
  H      2.243593    0.479729    1.700370
  H      3.467199    1.243717    0.950192

----------------------------
CARTESIAN COORDINATES (A.U.)
----------------------------
  NO LB      ZA    FRAG     MASS         X           Y           Z
   0 C     6.0000    0    12.011   -0.140560   -1.923220   -0.691135
   1 C     6.0000    0    12.011   -2.086815    2.990647   -0.274339
   2 C     6.0000    0    12.011   -2.653737   -1.526593   -0.053797
   3 C     6.0000    0    12.011    1.443991    0.154973   -1.130595
   4 C     6.0000    0    12.011    0.448466    2.609094   -0.917844
   5 C     6.0000    0    12.011   -3.625780    0.908388    0.155198
   6 O     8.0000    0    15.999   -6.118442    1.157748    0.789885
   7 O     8.0000    0    15.999   -4.180418   -3.563647    0.370800
   8 C     6.0000    0    12.011    4.188319   -0.244253   -1.811917
   9 C     6.0000    0    12.011    5.824803   -1.178036    0.397281
  10 N     7.0000    0    14.007    6.004336    0.636074    2.478546
  11 H     1.0000    0     1.008    0.567294   -3.844703   -0.842351
  12 H     1.0000    0     1.008   -2.808887    4.903771   -0.123199
  13 H     1.0000    0     1.008    1.649576    4.243932   -1.254829
  14 H     1.0000    0     1.008   -6.513153    2.951514    0.854264
  15 H     1.0000    0     1.008   -5.824858   -2.827892    0.782103
  16 H     1.0000    0     1.008    4.988847    1.509343   -2.578085
  17 H     1.0000    0     1.008    4.282620   -1.624756   -3.357195
  18 H     1.0000    0     1.008    5.097056   -2.969000    1.138617
  19 H     1.0000    0     1.008    7.738094   -1.550360   -0.300586
  20 H     1.0000    0     1.008    4.239776    0.906556    3.213234
  21 H     1.0000    0     1.008    6.552057    2.350285    1.795603

--------------------------------
INTERNAL COORDINATES (ANGSTROEM)
--------------------------------
 C      0   0   0     0.000000000000     0.00000000     0.00000000
 C      1   0   0     2.805523197821     0.00000000     0.00000000
 C      1   2   0     1.387975641096    59.26918075     0.00000000
 C      1   2   3     1.402350373691    60.37607015   180.02845998
 C      2   1   3     1.398803776387    59.66750404   180.00611131
 C      2   1   3     1.388897772438    59.52236256     0.00000000
 O      6   2   1     1.367528775778   121.95227700   180.00920684
 O      3   1   2     1.365711042118   119.17143681   179.98692815
 C      4   1   2     1.511161705913   120.30129602   179.68637508
 C      9   4   1     1.536490912475   113.89539138   288.13868293
 N     10   9   4     1.464099899045   113.45675457   296.17826453
 H      1   2   3     1.086556848409   178.59078522     2.05040317
 H      2   1   3     1.085042663281   179.03158820   183.19274898
 H      5   2   1     1.088217831956   119.03442604   179.94485396
 H      7   6   2     0.972525963359   108.05584911     0.20840682
 H      8   3   1     0.977859888803   104.40472661   179.93487285
 H      9   4   1     1.097702538820   109.92603166   164.71691619
 H      9   4   1     1.097652751393   108.32896839    49.72143441
 H     10   9   4     1.095632485563   110.64113857    58.65467567
 H     10   9   4     1.095578910234   108.79763881   175.75366564
 H     11  10   9     1.021544917913   108.59311985    62.78833923
 H     11  10   9     1.018569991864   109.60310980   307.78938786

---------------------------
INTERNAL COORDINATES (A.U.)
---------------------------
 C      0   0   0     0.000000000000     0.00000000     0.00000000
 C      1   0   0     5.301670506245     0.00000000     0.00000000
 C      1   2   0     2.622893842226    59.26918075     0.00000000
 C      1   2   3     2.650058150079    60.37607015   180.02845998
 C      2   1   3     2.643356052466    59.66750404   180.00611131
 C      2   1   3     2.624636417920    59.52236256     0.00000000
 O      6   2   1     2.584254866476   121.95227700   180.00920684
 O      3   1   2     2.580819847675   119.17143681   179.98692815
 C      4   1   2     2.855681768244   120.30129602   179.68637508
 C      9   4   1     2.903547031836   113.89539138   288.13868293
 N     10   9   4     2.766747841898   113.45675457   296.17826453
 H      1   2   3     2.053294872430   178.59078522     2.05040317
 H      2   1   3     2.050433477222   179.03158820   183.19274898
 H      5   2   1     2.056433676445   119.03442604   179.94485396
 H      7   6   2     1.837807728877   108.05584911     0.20840682
 H      8   3   1     1.847887387184   104.40472661   179.93487285
 H      9   4   1     2.074357174879   109.92603166   164.71691619
 H      9   4   1     2.074263090278   108.32896839    49.72143441
 H     10   9   4     2.070445341142   110.64113857    58.65467567
 H     10   9   4     2.070344098443   108.79763881   175.75366564
 H     11  10   9     1.930440128355   108.59311985    62.78833923
 H     11  10   9     1.924818332854   109.60310980   307.78938786

---------------------
BASIS SET INFORMATION
---------------------
There are 4 groups of distinct atoms

 Group   1 Type C   : 11s6p2d1f contracted to 5s3p2d1f pattern {62111/411/11/1}
 Group   2 Type O   : 11s6p2d1f contracted to 5s3p2d1f pattern {62111/411/11/1}
 Group   3 Type N   : 11s6p2d1f contracted to 5s3p2d1f pattern {62111/411/11/1}
 Group   4 Type H   : 5s1p contracted to 3s1p pattern {311/1}

Atom   0C    basis set group =>   1
Atom   1C    basis set group =>   1
Atom   2C    basis set group =>   1
Atom   3C    basis set group =>   1
Atom   4C    basis set group =>   1
Atom   5C    basis set group =>   1
Atom   6O    basis set group =>   2
Atom   7O    basis set group =>   2
Atom   8C    basis set group =>   1
Atom   9C    basis set group =>   1
Atom  10N    basis set group =>   3
Atom  11H    basis set group =>   4
Atom  12H    basis set group =>   4
Atom  13H    basis set group =>   4
Atom  14H    basis set group =>   4
Atom  15H    basis set group =>   4
Atom  16H    basis set group =>   4
Atom  17H    basis set group =>   4
Atom  18H    basis set group =>   4
Atom  19H    basis set group =>   4
Atom  20H    basis set group =>   4
Atom  21H    basis set group =>   4
---------------------------------
AUXILIARY/J BASIS SET INFORMATION
---------------------------------
There are 4 groups of distinct atoms

 Group   1 Type C   : 12s5p4d2f1g contracted to 6s4p3d1f1g pattern {711111/2111/211/2/1}
 Group   2 Type O   : 12s5p4d2f1g contracted to 6s4p3d1f1g pattern {711111/2111/211/2/1}
 Group   3 Type N   : 12s5p4d2f1g contracted to 6s4p3d1f1g pattern {711111/2111/211/2/1}
 Group   4 Type H   : 5s2p1d contracted to 3s1p1d pattern {311/2/1}

Atom   0C    basis set group =>   1
Atom   1C    basis set group =>   1
Atom   2C    basis set group =>   1
Atom   3C    basis set group =>   1
Atom   4C    basis set group =>   1
Atom   5C    basis set group =>   1
Atom   6O    basis set group =>   2
Atom   7O    basis set group =>   2
Atom   8C    basis set group =>   1
Atom   9C    basis set group =>   1
Atom  10N    basis set group =>   3
Atom  11H    basis set group =>   4
Atom  12H    basis set group =>   4
Atom  13H    basis set group =>   4
Atom  14H    basis set group =>   4
Atom  15H    basis set group =>   4
Atom  16H    basis set group =>   4
Atom  17H    basis set group =>   4
Atom  18H    basis set group =>   4
Atom  19H    basis set group =>   4
Atom  20H    basis set group =>   4
Atom  21H    basis set group =>   4


           ************************************************************
           *        Program running with 8 parallel MPI-processes     *
           *              working on a common directory               *
           ************************************************************
------------------------------------------------------------------------------
                           ORCA GTO INTEGRAL CALCULATION
                           -- RI-GTO INTEGRALS CHOSEN --
------------------------------------------------------------------------------
------------------------------------------------------------------------------
                   ___                                                        
                  /   \      - P O W E R E D   B Y -                         
                 /     \                                                     
                 |  |  |   _    _      __       _____    __    __             
                 |  |  |  | |  | |    /  \     |  _  \  |  |  /  |          
                  \  \/   | |  | |   /    \    | | | |  |  | /  /          
                 / \  \   | |__| |  /  /\  \   | |_| |  |  |/  /          
                |  |  |   |  __  | /  /__\  \  |    /   |      \           
                |  |  |   | |  | | |   __   |  |    \   |  |\   \          
                \     /   | |  | | |  |  |  |  | |\  \  |  | \   \       
                 \___/    |_|  |_| |__|  |__|  |_| \__\ |__|  \__/        
                                                                              
                      - O R C A' S   B I G   F R I E N D -                    
                                      &                                       
                       - I N T E G R A L  F E E D E R -                       
                                                                              
 v1 FN, 2020, v2 2021                                                         
------------------------------------------------------------------------------


Reading SHARK input file M00018.SHARKINP.tmp ... ok
----------------------
SHARK INTEGRAL PACKAGE
----------------------

Number of atoms                             ...     22
Number of basis functions                   ...    407
Number of shells                            ...    165
Maximum angular momentum                    ...      3
Integral batch strategy                     ... SHARK/LIBINT Hybrid
RI-J (if used) integral strategy            ... SPLIT-RIJ (Revised 2003 algorithm where possible)
Printlevel                                  ...      1
Contraction scheme used                     ... SEGMENTED contraction
Coulomb Range Separation                    ... NOT USED
Exchange Range Separation                   ... NOT USED
Finite Nucleus Model                        ... NOT USED
Auxiliary Coulomb fitting basis             ... AVAILABLE
   # of basis functions in Aux-J            ...    660
   # of shells in Aux-J                     ...    220
   Maximum angular momentum in Aux-J        ...      4
Auxiliary J/K fitting basis                 ... NOT available
Auxiliary Correlation fitting basis         ... NOT available
Auxiliary 'external' fitting basis          ... NOT available
Integral threshold                          ...     2.500000e-11
Primitive cut-off                           ...     2.500000e-12
Primitive pair pre-selection threshold      ...     2.500000e-12

Calculating pre-screening integrals         ... done (  0.1 sec) Dimension = 165
Organizing shell pair data                  ... done (  0.1 sec)
Shell pair information
Total number of shell pairs                 ...     13695
Shell pairs after pre-screening             ...     11669
Total number of primitive shell pairs       ...     41316
Primitive shell pairs kept                  ...     25460
          la=0 lb=0:   3213 shell pairs
          la=1 lb=0:   3347 shell pairs
          la=1 lb=1:    897 shell pairs
          la=2 lb=0:   1643 shell pairs
          la=2 lb=1:    863 shell pairs
          la=2 lb=2:    221 shell pairs
          la=3 lb=0:    794 shell pairs
          la=3 lb=1:    425 shell pairs
          la=3 lb=2:    208 shell pairs
          la=3 lb=3:     58 shell pairs

Calculating one electron integrals          ... done (  0.0 sec)
Calculating RI/J V-Matrix + Cholesky decomp.... done (  0.0 sec)
Calculating Nuclear repulsion               ... done (  0.0 sec) ENN=    602.775448051850 Eh

SHARK setup successfully completed in   0.2 seconds

Maximum memory used throughout the entire GTOINT-calculation: 20.0 MB


           ************************************************************
           *        Program running with 8 parallel MPI-processes     *
           *              working on a common directory               *
           ************************************************************
-------------------------------------------------------------------------------
                                 ORCA SCF
-------------------------------------------------------------------------------

------------
SCF SETTINGS
------------
Hamiltonian:
 Density Functional     Method          .... DFT(GTOs)
 Exchange Functional    Exchange        .... PBE
   PBE kappa parameter   XKappa         ....  0.804000
   PBE mue parameter    XMuePBE         ....  0.219520
 Correlation Functional Correlation     .... PBE
   PBE beta parameter  CBetaPBE         ....  0.066725
 LDA part of GGA corr.  LDAOpt          .... PW91-LDA
 Gradients option       PostSCFGGA      .... off
   Density functional embedding theory  .... OFF
   NL short-range parameter             ....  6.400000
 RI-approximation to the Coulomb term is turned on
   Number of AuxJ basis functions       .... 660


General Settings:
 Integral files         IntName         .... M00018
 Hartree-Fock type      HFTyp           .... RHF
 Total Charge           Charge          ....    0
 Multiplicity           Mult            ....    1
 Number of Electrons    NEL             ....   82
 Basis Dimension        Dim             ....  407
 Nuclear Repulsion      ENuc            ....    602.7754480518 Eh

Convergence Acceleration:
 DIIS                   CNVDIIS         .... on
   Start iteration      DIISMaxIt       ....    12
   Startup error        DIISStart       ....  0.200000
   # of expansion vecs  DIISMaxEq       ....     5
   Bias factor          DIISBfac        ....   1.050
   Max. coefficient     DIISMaxC        ....  10.000
 Trust-Rad. Augm. Hess. CNVTRAH         .... auto
   Auto Start mean grad. ratio tolernc. ....  1.125000
   Auto Start start iteration           ....    20
   Auto Start num. interpolation iter.  ....    10
   Max. Number of Micro iterations      ....    16
   Max. Number of Macro iterations      .... Maxiter - #DIIS iter
   Number of Davidson start vectors     ....     2
   Converg. threshold I  (grad. norm)   ....   1.000e-05
   Converg. threshold II (energy diff.) ....   1.000e-08
   Grad. Scal. Fac. for Micro threshold ....   0.100
   Minimum threshold for Micro iter.    ....   0.010
   NR start threshold (gradient norm)   ....   0.001
   Initial trust radius                 ....   0.400
   Minimum AH scaling param. (alpha)    ....   1.000
   Maximum AH scaling param. (alpha)    .... 1000.000
   Orbital update algorithm             .... Taylor
   White noise on init. David. guess    .... on
   Maximum white noise                  ....   0.010
   Quad. conv. algorithm                .... NR
 SOSCF                  CNVSOSCF        .... on
   Start iteration      SOSCFMaxIt      ....   150
   Startup grad/error   SOSCFStart      ....  0.003300
 Level Shifting         CNVShift        .... on
   Level shift para.    LevelShift      ....    0.2500
   Turn off err/grad.   ShiftErr        ....    0.0010
 Zerner damping         CNVZerner       .... off
 Static damping         CNVDamp         .... on
   Fraction old density DampFac         ....    0.7000
   Max. Damping (<1)    DampMax         ....    0.9800
   Min. Damping (>=0)   DampMin         ....    0.0000
   Turn off err/grad.   DampErr         ....    0.1000
 Fernandez-Rico         CNVRico         .... off

SCF Procedure:
 Maximum # iterations   MaxIter         ....   125
 SCF integral mode      SCFMode         .... Direct
   Integral package                     .... SHARK and LIBINT hybrid scheme
 Reset frequency        DirectResetFreq ....    20
 Integral Threshold     Thresh          ....  2.500e-11 Eh
 Primitive CutOff       TCut            ....  2.500e-12 Eh

Convergence Tolerance:
 Convergence Check Mode ConvCheckMode   .... Total+1el-Energy
 Convergence forced     ConvForced      .... 0
 Energy Change          TolE            ....  1.000e-08 Eh
 1-El. energy change                    ....  1.000e-05 Eh
 Orbital Gradient       TolG            ....  1.000e-05
 Orbital Rotation angle TolX            ....  1.000e-05
 DIIS Error             TolErr          ....  5.000e-07


Diagonalization of the overlap matrix:
Smallest eigenvalue                        ... 8.861e-06
Time for diagonalization                   ...    0.031 sec
Threshold for overlap eigenvalues          ... 1.000e-08
Number of eigenvalues below threshold      ... 0
Time for construction of square roots      ...    0.017 sec
Total time needed                          ...    0.050 sec

Time for model grid setup =    0.110 sec

------------------------------
INITIAL GUESS: MODEL POTENTIAL
------------------------------
Loading Hartree-Fock densities                     ... done
Calculating cut-offs                               ... done
Initializing the effective Hamiltonian             ... done
Setting up the integral package (SHARK)            ... done
Starting the Coulomb interaction                   ... done (   0.2 sec)
Reading the grid                                   ... done
Mapping shells                                     ... done
Starting the XC term evaluation                    ... done (   0.1 sec)
  promolecular density results
     # of electrons  =     81.989705544
     EX              =    -67.038962246
     EC              =     -2.737893882
     EX+EC           =    -69.776856129
Transforming the Hamiltonian                       ... done (   0.0 sec)
Diagonalizing the Hamiltonian                      ... done (   0.0 sec)
Back transforming the eigenvectors                 ... done (   0.0 sec)
Now organizing SCF variables                       ... done
                      ------------------
                      INITIAL GUESS DONE (   0.5 sec)
                      ------------------
-------------------
DFT GRID GENERATION
-------------------

General Integration Accuracy     IntAcc      ... 4.388
Radial Grid Type                 RadialGrid  ... OptM3 with GC (2021)
Angular Grid (max. ang.)         AngularGrid ... 4 (Lebedev-302)
Angular grid pruning method      GridPruning ... 4 (adaptive)
Weight generation scheme         WeightScheme... Becke
Basis function cutoff            BFCut       ... 1.0000e-11
Integration weight cutoff        WCut        ... 1.0000e-14
Angular grids for H and He will be reduced by one unit
Partially contracted basis set               ... off
Rotationally invariant grid construction     ... off

Total number of grid points                  ...   101314
Total number of batches                      ...     1596
Average number of points per batch           ...       63
Average number of grid points per atom       ...     4605
Time for grid setup =    0.480 sec

--------------
SCF ITERATIONS
--------------
ITER       Energy         Delta-E        Max-DP      RMS-DP      [F,P]     Damp
               ***  Starting incremental Fock matrix formation  ***
  0   -515.9267356637   0.000000000000 0.27852251  0.00233884  0.2594146 0.7000
  1   -516.0846245916  -0.157888927922 0.26967687  0.00221217  0.1000534 0.7000
                               ***Turning on DIIS***
  2   -516.1365126900  -0.051888098376 0.30277747  0.00313689  0.0229897 0.0000
  3   -516.2183401512  -0.081827461273 0.24868985  0.00184075  0.0631400 0.0000
  4   -516.2411319395  -0.022791788289 0.07319012  0.00064672  0.0132805 0.0000
  5   -516.2426556978  -0.001523758285 0.03470329  0.00030654  0.0054748 0.0000
                      *** Initiating the SOSCF procedure ***
                           *** Shutting down DIIS ***
                      *** Re-Reading the Fockian *** 
                      *** Removing any level shift *** 
ITER      Energy       Delta-E        Grad      Rot      Max-DP    RMS-DP
  6   -516.24278450  -0.0001287999  0.000360  0.000360  0.012473  0.000108
               *** Restarting incremental Fock matrix formation ***
  7   -516.24279234  -0.0000078400  0.000272  0.001390  0.007864  0.000087
  8   -516.24278408   0.0000082612  0.000758  0.001469  0.002589  0.000026
  9   -516.24279530  -0.0000112208  0.000116  0.000594  0.001038  0.000012
 10   -516.24279440   0.0000008982  0.000157  0.000299  0.000856  0.000008
 11   -516.24279558  -0.0000011786  0.000013  0.000063  0.000156  0.000002
 12   -516.24279556   0.0000000150  0.000026  0.000049  0.000080  0.000001
 13   -516.24279559  -0.0000000286  0.000003  0.000015  0.000405  0.000004
 14   -516.24279559   0.0000000040  0.000006  0.000012  0.000073  0.000001
                  ***Gradient check signals convergence***
              ***Rediagonalizing the Fockian in SOSCF/NRSCF***

               *****************************************************
               *                     SUCCESS                       *
               *           SCF CONVERGED AFTER  15 CYCLES          *
               *****************************************************


----------------
TOTAL SCF ENERGY
----------------

Total Energy       :         -516.24279559 Eh          -14047.68064 eV

Components:
Nuclear Repulsion  :          602.77544805 Eh           16402.35382 eV
Electronic Energy  :        -1119.01824365 Eh          -30450.03446 eV
One Electron Energy:        -1897.27282707 Eh          -51627.41831 eV
Two Electron Energy:          778.25458342 Eh           21177.38385 eV

Virial components:
Potential Energy   :        -1030.35084311 Eh          -28037.27183 eV
Kinetic Energy     :          514.10804751 Eh           13989.59119 eV
Virial Ratio       :            2.00415233


DFT components:
N(Alpha)           :       41.000037281444 electrons
N(Beta)            :       41.000037281444 electrons
N(Total)           :       82.000074562889 electrons
E(X)               :      -68.335917808706 Eh       
E(C)               :       -2.743307620998 Eh       
E(XC)              :      -71.079225429705 Eh       
DFET-embed. en.    :        0.000000000000 Eh       

---------------
SCF CONVERGENCE
---------------

  Last Energy change         ...   -6.7139e-09  Tolerance :   1.0000e-08
  Last MAX-Density change    ...    8.1032e-05  Tolerance :   1.0000e-07
  Last RMS-Density change    ...    9.8499e-07  Tolerance :   5.0000e-09
  Last Orbital Gradient      ...    1.9828e-06  Tolerance :   1.0000e-05
  Last Orbital Rotation      ...    8.1446e-06  Tolerance :   1.0000e-05

             **** THE GBW FILE WAS UPDATED (M00018.gbw) ****
             **** DENSITY M00018.scfp WAS UPDATED ****
             **** ENERGY FILE WAS UPDATED (M00018.en.tmp) ****
             **** THE GBW FILE WAS UPDATED (M00018.gbw) ****
             **** DENSITY M00018.scfp WAS UPDATED ****
----------------
ORBITAL ENERGIES
----------------

  NO   OCC          E(Eh)            E(eV) 
   0   2.0000     -18.799271      -511.5542 
   1   2.0000     -18.780675      -511.0482 
   2   2.0000     -13.956553      -379.7771 
   3   2.0000      -9.945161      -270.6216 
   4   2.0000      -9.941932      -270.5337 
   5   2.0000      -9.900192      -269.3979 
   6   2.0000      -9.891790      -269.1693 
   7   2.0000      -9.891251      -269.1546 
   8   2.0000      -9.883207      -268.9357 
   9   2.0000      -9.882492      -268.9163 
  10   2.0000      -9.880255      -268.8554 
  11   2.0000      -0.998833       -27.1796 
  12   2.0000      -0.968202       -26.3461 
  13   2.0000      -0.803023       -21.8514 
  14   2.0000      -0.777288       -21.1511 
  15   2.0000      -0.700006       -19.0481 
  16   2.0000      -0.676337       -18.4041 
  17   2.0000      -0.639633       -17.4053 
  18   2.0000      -0.586575       -15.9615 
  19   2.0000      -0.552890       -15.0449 
  20   2.0000      -0.540547       -14.7090 
  21   2.0000      -0.506790       -13.7905 
  22   2.0000      -0.474154       -12.9024 
  23   2.0000      -0.448695       -12.2096 
  24   2.0000      -0.426503       -11.6057 
  25   2.0000      -0.413266       -11.2455 
  26   2.0000      -0.397698       -10.8219 
  27   2.0000      -0.393142       -10.6979 
  28   2.0000      -0.383648       -10.4396 
  29   2.0000      -0.373928       -10.1751 
  30   2.0000      -0.357408        -9.7256 
  31   2.0000      -0.355971        -9.6865 
  32   2.0000      -0.330413        -8.9910 
  33   2.0000      -0.328958        -8.9514 
  34   2.0000      -0.314038        -8.5454 
  35   2.0000      -0.301545        -8.2055 
  36   2.0000      -0.293456        -7.9853 
  37   2.0000      -0.287381        -7.8200 
  38   2.0000      -0.218361        -5.9419 
  39   2.0000      -0.194249        -5.2858 
  40   2.0000      -0.187556        -5.1037 
  41   0.0000      -0.041949        -1.1415 
  42   0.0000      -0.022439        -0.6106 
  43   0.0000      -0.013069        -0.3556 
  44   0.0000       0.014714         0.4004 
  45   0.0000       0.027946         0.7604 
  46   0.0000       0.042213         1.1487 
  47   0.0000       0.049160         1.3377 
  48   0.0000       0.055757         1.5172 
  49   0.0000       0.077409         2.1064 
  50   0.0000       0.082381         2.2417 
  51   0.0000       0.095253         2.5920 
  52   0.0000       0.109197         2.9714 
  53   0.0000       0.114125         3.1055 
  54   0.0000       0.116875         3.1803 
  55   0.0000       0.126689         3.4474 
  56   0.0000       0.137336         3.7371 
  57   0.0000       0.150012         4.0820 
  58   0.0000       0.158114         4.3025 
  59   0.0000       0.173771         4.7286 
  60   0.0000       0.185453         5.0464 
  61   0.0000       0.193161         5.2562 
  62   0.0000       0.202889         5.5209 
  63   0.0000       0.205604         5.5948 
  64   0.0000       0.224356         6.1050 
  65   0.0000       0.229039         6.2325 
  66   0.0000       0.236241         6.4284 
  67   0.0000       0.240387         6.5413 
  68   0.0000       0.253333         6.8935 
  69   0.0000       0.260603         7.0914 
  70   0.0000       0.268806         7.3146 
  71   0.0000       0.275000         7.4831 
  72   0.0000       0.279130         7.5955 
  73   0.0000       0.285018         7.7557 
  74   0.0000       0.304378         8.2826 
  75   0.0000       0.306292         8.3346 
  76   0.0000       0.312069         8.4918 
  77   0.0000       0.321161         8.7392 
  78   0.0000       0.325066         8.8455 
  79   0.0000       0.335667         9.1340 
  80   0.0000       0.337487         9.1835 
  81   0.0000       0.339502         9.2383 
  82   0.0000       0.352147         9.5824 
  83   0.0000       0.360336         9.8053 
  84   0.0000       0.375543        10.2190 
  85   0.0000       0.385385        10.4869 
  86   0.0000       0.393762        10.7148 
  87   0.0000       0.397048        10.8042 
  88   0.0000       0.402585        10.9549 
  89   0.0000       0.406495        11.0613 
  90   0.0000       0.418084        11.3766 
  91   0.0000       0.424239        11.5441 
  92   0.0000       0.434449        11.8219 
  93   0.0000       0.439441        11.9578 
  94   0.0000       0.450265        12.2523 
  95   0.0000       0.456808        12.4304 
  96   0.0000       0.468872        12.7586 
  97   0.0000       0.476752        12.9731 
  98   0.0000       0.488196        13.2845 
  99   0.0000       0.493875        13.4390 
 100   0.0000       0.503781        13.7086 
 101   0.0000       0.510201        13.8833 
 102   0.0000       0.521129        14.1806 
 103   0.0000       0.548940        14.9374 
 104   0.0000       0.551707        15.0127 
 105   0.0000       0.554386        15.0856 
 106   0.0000       0.568357        15.4658 
 107   0.0000       0.574718        15.6389 
 108   0.0000       0.584605        15.9079 
 109   0.0000       0.600843        16.3498 
 110   0.0000       0.605302        16.4711 
 111   0.0000       0.621072        16.9002 
 112   0.0000       0.642042        17.4708 
 113   0.0000       0.659219        17.9383 
 114   0.0000       0.669031        18.2053 
 115   0.0000       0.686778        18.6882 
 116   0.0000       0.691342        18.8124 
 117   0.0000       0.700243        19.0546 
 118   0.0000       0.718951        19.5636 
 119   0.0000       0.723578        19.6896 
 120   0.0000       0.750535        20.4231 
 121   0.0000       0.767043        20.8723 
 122   0.0000       0.769386        20.9361 
 123   0.0000       0.785432        21.3727 
 124   0.0000       0.791593        21.5403 
 125   0.0000       0.806088        21.9348 
 126   0.0000       0.822077        22.3699 
 127   0.0000       0.826327        22.4855 
 128   0.0000       0.840123        22.8609 
 129   0.0000       0.847998        23.0752 
 130   0.0000       0.868130        23.6230 
 131   0.0000       0.873458        23.7680 
 132   0.0000       0.901869        24.5411 
 133   0.0000       0.929484        25.2925 
 134   0.0000       0.951219        25.8840 
 135   0.0000       0.970324        26.4039 
 136   0.0000       0.984415        26.7873 
 137   0.0000       1.010399        27.4944 
 138   0.0000       1.017712        27.6933 
 139   0.0000       1.035418        28.1752 
 140   0.0000       1.040386        28.3104 
 141   0.0000       1.070156        29.1204 
 142   0.0000       1.081832        29.4381 
 143   0.0000       1.096302        29.8319 
 144   0.0000       1.105387        30.0791 
 145   0.0000       1.136116        30.9153 
 146   0.0000       1.138121        30.9698 
 147   0.0000       1.153666        31.3928 
 148   0.0000       1.173772        31.9400 
 149   0.0000       1.179838        32.1050 
 150   0.0000       1.193057        32.4647 
 151   0.0000       1.215523        33.0761 
 152   0.0000       1.237744        33.6807 
 153   0.0000       1.243543        33.8385 
 154   0.0000       1.253428        34.1075 
 155   0.0000       1.274684        34.6859 
 156   0.0000       1.281851        34.8810 
 157   0.0000       1.295878        35.2626 
 158   0.0000       1.300200        35.3802 
 159   0.0000       1.312676        35.7197 
 160   0.0000       1.327780        36.1307 
 161   0.0000       1.357859        36.9492 
 162   0.0000       1.363660        37.1071 
 163   0.0000       1.383717        37.6528 
 164   0.0000       1.405537        38.2466 
 165   0.0000       1.418432        38.5975 
 166   0.0000       1.439670        39.1754 
 167   0.0000       1.456323        39.6286 
 168   0.0000       1.469162        39.9779 
 169   0.0000       1.495624        40.6980 
 170   0.0000       1.502931        40.8968 
 171   0.0000       1.517569        41.2951 
 172   0.0000       1.532367        41.6978 
 173   0.0000       1.553630        42.2764 
 174   0.0000       1.565488        42.5991 
 175   0.0000       1.583529        43.0900 
 176   0.0000       1.596103        43.4322 
 177   0.0000       1.603378        43.6301 
 178   0.0000       1.611079        43.8397 
 179   0.0000       1.627670        44.2912 
 180   0.0000       1.634398        44.4742 
 181   0.0000       1.648763        44.8651 
 182   0.0000       1.662522        45.2395 
 183   0.0000       1.670837        45.4658 
 184   0.0000       1.692029        46.0424 
 185   0.0000       1.701499        46.3001 
 186   0.0000       1.732839        47.1530 
 187   0.0000       1.739735        47.3406 
 188   0.0000       1.772039        48.2196 
 189   0.0000       1.784768        48.5660 
 190   0.0000       1.786634        48.6168 
 191   0.0000       1.799878        48.9772 
 192   0.0000       1.812256        49.3140 
 193   0.0000       1.833300        49.8866 
 194   0.0000       1.841340        50.1054 
 195   0.0000       1.854912        50.4747 
 196   0.0000       1.873198        50.9723 
 197   0.0000       1.897956        51.6460 
 198   0.0000       1.918732        52.2114 
 199   0.0000       1.927705        52.4555 
 200   0.0000       1.941537        52.8319 
 201   0.0000       1.952755        53.1372 
 202   0.0000       1.966174        53.5023 
 203   0.0000       1.976585        53.7856 
 204   0.0000       1.993086        54.2346 
 205   0.0000       2.017368        54.8954 
 206   0.0000       2.028734        55.2047 
 207   0.0000       2.055492        55.9328 
 208   0.0000       2.057920        55.9988 
 209   0.0000       2.074295        56.4444 
 210   0.0000       2.083825        56.7038 
 211   0.0000       2.097085        57.0646 
 212   0.0000       2.100689        57.1627 
 213   0.0000       2.105302        57.2882 
 214   0.0000       2.142836        58.3095 
 215   0.0000       2.168778        59.0154 
 216   0.0000       2.180263        59.3280 
 217   0.0000       2.206911        60.0531 
 218   0.0000       2.212059        60.1932 
 219   0.0000       2.231739        60.7287 
 220   0.0000       2.243490        61.0485 
 221   0.0000       2.270340        61.7791 
 222   0.0000       2.320905        63.1550 
 223   0.0000       2.327416        63.3322 
 224   0.0000       2.348876        63.9162 
 225   0.0000       2.367430        64.4210 
 226   0.0000       2.375268        64.6343 
 227   0.0000       2.382273        64.8249 
 228   0.0000       2.404183        65.4212 
 229   0.0000       2.410862        65.6029 
 230   0.0000       2.425651        66.0053 
 231   0.0000       2.446592        66.5751 
 232   0.0000       2.461272        66.9746 
 233   0.0000       2.468462        67.1703 
 234   0.0000       2.512714        68.3744 
 235   0.0000       2.536343        69.0174 
 236   0.0000       2.538344        69.0719 
 237   0.0000       2.555454        69.5374 
 238   0.0000       2.570842        69.9562 
 239   0.0000       2.578813        70.1731 
 240   0.0000       2.584694        70.3331 
 241   0.0000       2.589787        70.4717 
 242   0.0000       2.605850        70.9088 
 243   0.0000       2.618376        71.2496 
 244   0.0000       2.649841        72.1058 
 245   0.0000       2.657942        72.3263 
 246   0.0000       2.661807        72.4314 
 247   0.0000       2.675383        72.8009 
 248   0.0000       2.699153        73.4477 
 249   0.0000       2.701734        73.5179 
 250   0.0000       2.727286        74.2132 
 251   0.0000       2.737408        74.4886 
 252   0.0000       2.748317        74.7855 
 253   0.0000       2.769581        75.3641 
 254   0.0000       2.780783        75.6689 
 255   0.0000       2.782943        75.7277 
 256   0.0000       2.793234        76.0078 
 257   0.0000       2.805157        76.3322 
 258   0.0000       2.823619        76.8346 
 259   0.0000       2.838313        77.2344 
 260   0.0000       2.852153        77.6110 
 261   0.0000       2.862302        77.8872 
 262   0.0000       2.888612        78.6031 
 263   0.0000       2.906590        79.0923 
 264   0.0000       2.912212        79.2453 
 265   0.0000       2.943175        80.0879 
 266   0.0000       2.950006        80.2738 
 267   0.0000       2.969666        80.8087 
 268   0.0000       2.980254        81.0968 
 269   0.0000       2.991489        81.4026 
 270   0.0000       2.995448        81.5103 
 271   0.0000       3.010728        81.9261 
 272   0.0000       3.020120        82.1816 
 273   0.0000       3.046432        82.8976 
 274   0.0000       3.075002        83.6751 
 275   0.0000       3.082129        83.8690 
 276   0.0000       3.096261        84.2535 
 277   0.0000       3.114179        84.7411 
 278   0.0000       3.120417        84.9109 
 279   0.0000       3.126703        85.0819 
 280   0.0000       3.131576        85.2145 
 281   0.0000       3.154947        85.8505 
 282   0.0000       3.165959        86.1501 
 283   0.0000       3.175018        86.3966 
 284   0.0000       3.198891        87.0462 
 285   0.0000       3.208637        87.3115 
 286   0.0000       3.215778        87.5058 
 287   0.0000       3.242380        88.2297 
 288   0.0000       3.261266        88.7436 
 289   0.0000       3.263687        88.8094 
 290   0.0000       3.275680        89.1358 
 291   0.0000       3.282339        89.3170 
 292   0.0000       3.309293        90.0504 
 293   0.0000       3.312507        90.1379 
 294   0.0000       3.327658        90.5502 
 295   0.0000       3.337543        90.8192 
 296   0.0000       3.351134        91.1890 
 297   0.0000       3.359475        91.4160 
 298   0.0000       3.378905        91.9447 
 299   0.0000       3.399493        92.5049 
 300   0.0000       3.406565        92.6973 
 301   0.0000       3.426068        93.2281 
 302   0.0000       3.440899        93.6316 
 303   0.0000       3.443890        93.7130 
 304   0.0000       3.473939        94.5307 
 305   0.0000       3.478472        94.6540 
 306   0.0000       3.519835        95.7796 
 307   0.0000       3.551343        96.6370 
 308   0.0000       3.582237        97.4776 
 309   0.0000       3.618136        98.4545 
 310   0.0000       3.628047        98.7242 
 311   0.0000       3.648420        99.2786 
 312   0.0000       3.693625       100.5086 
 313   0.0000       3.699004       100.6550 
 314   0.0000       3.748174       101.9930 
 315   0.0000       3.766626       102.4951 
 316   0.0000       3.781719       102.9058 
 317   0.0000       3.813546       103.7719 
 318   0.0000       3.818834       103.9158 
 319   0.0000       3.844428       104.6122 
 320   0.0000       3.859155       105.0130 
 321   0.0000       3.870170       105.3127 
 322   0.0000       3.905862       106.2839 
 323   0.0000       3.911765       106.4445 
 324   0.0000       3.939256       107.1926 
 325   0.0000       3.956175       107.6530 
 326   0.0000       4.025274       109.5333 
 327   0.0000       4.027326       109.5891 
 328   0.0000       4.045283       110.0778 
 329   0.0000       4.083602       111.1205 
 330   0.0000       4.092391       111.3596 
 331   0.0000       4.110124       111.8422 
 332   0.0000       4.120806       112.1328 
 333   0.0000       4.133650       112.4823 
 334   0.0000       4.149230       112.9063 
 335   0.0000       4.191290       114.0508 
 336   0.0000       4.206806       114.4730 
 337   0.0000       4.233368       115.1958 
 338   0.0000       4.237764       115.3154 
 339   0.0000       4.270360       116.2024 
 340   0.0000       4.325953       117.7152 
 341   0.0000       4.340122       118.1007 
 342   0.0000       4.358978       118.6138 
 343   0.0000       4.368997       118.8864 
 344   0.0000       4.425471       120.4232 
 345   0.0000       4.461760       121.4107 
 346   0.0000       4.504924       122.5852 
 347   0.0000       4.542029       123.5949 
 348   0.0000       4.566630       124.2643 
 349   0.0000       4.603428       125.2657 
 350   0.0000       4.636769       126.1729 
 351   0.0000       4.682599       127.4200 
 352   0.0000       4.725861       128.5972 
 353   0.0000       4.765493       129.6757 
 354   0.0000       4.774142       129.9110 
 355   0.0000       4.786198       130.2391 
 356   0.0000       4.802579       130.6848 
 357   0.0000       4.828887       131.4007 
 358   0.0000       4.877491       132.7233 
 359   0.0000       4.907517       133.5403 
 360   0.0000       4.970953       135.2665 
 361   0.0000       4.992087       135.8416 
 362   0.0000       5.018334       136.5558 
 363   0.0000       5.032291       136.9356 
 364   0.0000       5.104788       138.9083 
 365   0.0000       5.127285       139.5205 
 366   0.0000       5.172369       140.7473 
 367   0.0000       5.178770       140.9215 
 368   0.0000       5.215696       141.9263 
 369   0.0000       5.248937       142.8308 
 370   0.0000       5.292735       144.0226 
 371   0.0000       5.332572       145.1067 
 372   0.0000       5.381437       146.4363 
 373   0.0000       5.383153       146.4830 
 374   0.0000       5.414419       147.3338 
 375   0.0000       5.474846       148.9781 
 376   0.0000       5.525367       150.3529 
 377   0.0000       5.546881       150.9383 
 378   0.0000       5.678940       154.5318 
 379   0.0000       5.751432       156.5044 
 380   0.0000       5.764157       156.8507 
 381   0.0000       5.870439       159.7428 
 382   0.0000       6.072352       165.2371 
 383   0.0000       6.145128       167.2174 
 384   0.0000       6.252296       170.1336 
 385   0.0000       6.257692       170.2805 
 386   0.0000       6.302716       171.5056 
 387   0.0000       6.425491       174.8465 
 388   0.0000       6.520863       177.4417 
 389   0.0000       6.624000       180.2482 
 390   0.0000       6.662731       181.3021 
 391   0.0000       6.696041       182.2085 
 392   0.0000       6.851682       186.4437 
 393   0.0000       6.872050       186.9980 
 394   0.0000       7.090594       192.9449 
 395   0.0000       7.215123       196.3335 
 396   0.0000      21.895225       595.7994 
 397   0.0000      22.169702       603.2683 
 398   0.0000      22.283264       606.3584 
 399   0.0000      22.435362       610.4972 
 400   0.0000      22.492633       612.0557 
 401   0.0000      22.613229       615.3373 
 402   0.0000      22.718712       618.2076 
 403   0.0000      23.143286       629.7608 
 404   0.0000      31.632291       860.7584 
 405   0.0000      43.438740      1182.0282 
 406   0.0000      43.667409      1188.2506 

                    ********************************
                    * MULLIKEN POPULATION ANALYSIS *
                    ********************************

-----------------------
MULLIKEN ATOMIC CHARGES
-----------------------
   0 C :   -0.286263
   1 C :   -0.175992
   2 C :    0.128394
   3 C :    0.222259
   4 C :   -0.272305
   5 C :    0.219116
   6 O :   -0.404285
   7 O :   -0.347360
   8 C :   -0.235134
   9 C :   -0.108879
  10 N :   -0.453900
  11 H :    0.094955
  12 H :    0.093466
  13 H :    0.084943
  14 H :    0.315589
  15 H :    0.315862
  16 H :    0.108600
  17 H :    0.088426
  18 H :    0.105505
  19 H :    0.101765
  20 H :    0.211966
  21 H :    0.193272
Sum of atomic charges:    0.0000000

--------------------------------
MULLIKEN REDUCED ORBITAL CHARGES
--------------------------------
  0 C s       :     3.309593  s :     3.309593
      pz      :     1.025373  p :     2.893576
      px      :     0.967893
      py      :     0.900310
      dz2     :     0.007111  d :     0.076077
      dxz     :     0.019089
      dyz     :     0.006994
      dx2y2   :     0.022926
      dxy     :     0.019957
      f0      :     0.001094  f :     0.007017
      f+1     :     0.001038
      f-1     :     0.000650
      f+2     :     0.000659
      f-2     :     0.000793
      f+3     :     0.000968
      f-3     :     0.001815
  1 C s       :     3.189416  s :     3.189416
      pz      :     1.043108  p :     2.902615
      px      :     0.950265
      py      :     0.909242
      dz2     :     0.009705  d :     0.077035
      dxz     :     0.019036
      dyz     :     0.008804
      dx2y2   :     0.015205
      dxy     :     0.024285
      f0      :     0.001105  f :     0.006926
      f+1     :     0.000980
      f-1     :     0.000668
      f+2     :     0.000683
      f-2     :     0.000790
      f+3     :     0.001007
      f-3     :     0.001692
  2 C s       :     3.067687  s :     3.067687
      pz      :     0.966067  p :     2.620793
      px      :     0.843652
      py      :     0.811074
      dz2     :     0.011881  d :     0.167888
      dxz     :     0.033712
      dyz     :     0.034092
      dx2y2   :     0.054032
      dxy     :     0.034171
      f0      :     0.001957  f :     0.015238
      f+1     :     0.001402
      f-1     :     0.001225
      f+2     :     0.001323
      f-2     :     0.002426
      f+3     :     0.002672
      f-3     :     0.004233
  3 C s       :     3.155176  s :     3.155176
      pz      :     0.912177  p :     2.480196
      px      :     0.790699
      py      :     0.777320
      dz2     :     0.009604  d :     0.132943
      dxz     :     0.021467
      dyz     :     0.027289
      dx2y2   :     0.037650
      dxy     :     0.036933
      f0      :     0.001289  f :     0.009426
      f+1     :     0.000935
      f-1     :     0.000605
      f+2     :     0.000993
      f-2     :     0.001303
      f+3     :     0.001441
      f-3     :     0.002860
  4 C s       :     3.264606  s :     3.264606
      pz      :     1.026611  p :     2.913840
      px      :     0.962565
      py      :     0.924664
      dz2     :     0.006450  d :     0.086932
      dxz     :     0.016774
      dyz     :     0.012442
      dx2y2   :     0.018138
      dxy     :     0.033128
      f0      :     0.001140  f :     0.006927
      f+1     :     0.001002
      f-1     :     0.000484
      f+2     :     0.001007
      f-2     :     0.000461
      f+3     :     0.001083
      f-3     :     0.001751
  5 C s       :     3.089709  s :     3.089709
      pz      :     0.982820  p :     2.517440
      px      :     0.701703
      py      :     0.832917
      dz2     :     0.014167  d :     0.159036
      dxz     :     0.036582
      dyz     :     0.026131
      dx2y2   :     0.032694
      dxy     :     0.049462
      f0      :     0.001876  f :     0.014699
      f+1     :     0.001957
      f-1     :     0.000639
      f+2     :     0.002347
      f-2     :     0.001316
      f+3     :     0.002489
      f-3     :     0.004073
  6 O s       :     3.768919  s :     3.768919
      pz      :     1.799691  p :     4.603463
      px      :     1.399352
      py      :     1.404420
      dz2     :     0.004307  d :     0.030243
      dxz     :     0.006514
      dyz     :     0.001325
      dx2y2   :     0.012731
      dxy     :     0.005366
      f0      :     0.000229  f :     0.001660
      f+1     :     0.000300
      f-1     :     0.000314
      f+2     :     0.000159
      f-2     :     0.000073
      f+3     :     0.000205
      f-3     :     0.000380
  7 O s       :     3.764008  s :     3.764008
      pz      :     1.765075  p :     4.549568
      px      :     1.289757
      py      :     1.494736
      dz2     :     0.004074  d :     0.032217
      dxz     :     0.002574
      dyz     :     0.006090
      dx2y2   :     0.008442
      dxy     :     0.011036
      f0      :     0.000282  f :     0.001567
      f+1     :     0.000290
      f-1     :     0.000206
      f+2     :     0.000085
      f-2     :     0.000197
      f+3     :     0.000125
      f-3     :     0.000382
  8 C s       :     3.196110  s :     3.196110
      pz      :     0.985194  p :     2.945660
      px      :     0.904331
      py      :     1.056135
      dz2     :     0.014978  d :     0.088176
      dxz     :     0.020827
      dyz     :     0.016533
      dx2y2   :     0.017856
      dxy     :     0.017984
      f0      :     0.000661  f :     0.005188
      f+1     :     0.000843
      f-1     :     0.000531
      f+2     :     0.001262
      f-2     :     0.000543
      f+3     :     0.000644
      f-3     :     0.000704
  9 C s       :     3.177432  s :     3.177432
      pz      :     0.876095  p :     2.814816
      px      :     1.015655
      py      :     0.923065
      dz2     :     0.033241  d :     0.109237
      dxz     :     0.024678
      dyz     :     0.021025
      dx2y2   :     0.016724
      dxy     :     0.013569
      f0      :     0.001259  f :     0.007394
      f+1     :     0.000595
      f-1     :     0.001476
      f+2     :     0.001612
      f-2     :     0.001590
      f+3     :     0.000566
      f-3     :     0.000296
 10 N s       :     3.511598  s :     3.511598
      pz      :     1.411197  p :     3.900171
      px      :     1.360339
      py      :     1.128634
      dz2     :     0.009683  d :     0.040017
      dxz     :     0.006863
      dyz     :     0.008405
      dx2y2   :     0.009953
      dxy     :     0.005113
      f0      :     0.000399  f :     0.002115
      f+1     :     0.000168
      f-1     :     0.000297
      f+2     :     0.000559
      f-2     :     0.000399
      f+3     :     0.000231
      f-3     :     0.000061
 11 H s       :     0.883021  s :     0.883021
      pz      :     0.005188  p :     0.022024
      px      :     0.004792
      py      :     0.012043
 12 H s       :     0.884305  s :     0.884305
      pz      :     0.005469  p :     0.022229
      px      :     0.004862
      py      :     0.011897
 13 H s       :     0.892933  s :     0.892933
      pz      :     0.005597  p :     0.022124
      px      :     0.007045
      py      :     0.009482
 14 H s       :     0.637992  s :     0.637992
      pz      :     0.015737  p :     0.046419
      px      :     0.011155
      py      :     0.019527
 15 H s       :     0.637076  s :     0.637076
      pz      :     0.015937  p :     0.047063
      px      :     0.018410
      py      :     0.012715
 16 H s       :     0.870163  s :     0.870163
      pz      :     0.005973  p :     0.021237
[...]
      f-2     :     0.000071
      f+3     :     0.000341
      f-3     :     0.000208
  7 O s       :     3.769580  s :     3.769580
      pz      :     1.789649  p :     4.608618
      px      :     1.567792
      py      :     1.251177
      dz2     :     0.003318  d :     0.029736
      dxz     :     0.004331
      dyz     :     0.004534
      dx2y2   :     0.005289
      dxy     :     0.012263
      f0      :     0.000296  f :     0.001625
      f+1     :     0.000148
      f-1     :     0.000285
      f+2     :     0.000063
      f-2     :     0.000264
      f+3     :     0.000403
      f-3     :     0.000166
  8 C s       :     3.164347  s :     3.164347
      pz      :     0.970024  p :     2.883991
      px      :     0.898129
      py      :     1.015839
      dz2     :     0.013840  d :     0.089393
      dxz     :     0.021818
      dyz     :     0.019269
      dx2y2   :     0.018889
      dxy     :     0.015577
      f0      :     0.000779  f :     0.005335
      f+1     :     0.000969
      f-1     :     0.000324
      f+2     :     0.001400
      f-2     :     0.000615
      f+3     :     0.000426
      f-3     :     0.000822
  9 C s       :     3.198527  s :     3.198527
      pz      :     0.914689  p :     2.803420
      px      :     1.013135
      py      :     0.875595
      dz2     :     0.027728  d :     0.112670
      dxz     :     0.012236
      dyz     :     0.029173
      dx2y2   :     0.031429
      dxy     :     0.012104
      f0      :     0.000925  f :     0.007603
      f+1     :     0.000461
      f-1     :     0.001764
      f+2     :     0.001737
      f-2     :     0.001164
      f+3     :     0.000816
      f-3     :     0.000737
 10 N s       :     3.545506  s :     3.545506
      pz      :     1.296240  p :     3.897934
      px      :     1.128639
      py      :     1.473054
      dz2     :     0.007442  d :     0.038968
      dxz     :     0.010173
      dyz     :     0.005448
      dx2y2   :     0.010356
      dxy     :     0.005548
      f0      :     0.000129  f :     0.002166
      f+1     :     0.000142
      f-1     :     0.000369
      f+2     :     0.000749
      f-2     :     0.000217
      f+3     :     0.000426
      f-3     :     0.000134
 11 H s       :     0.884112  s :     0.884112
      pz      :     0.005776  p :     0.022011
      px      :     0.005743
      py      :     0.010492
 12 H s       :     0.880857  s :     0.880857
      pz      :     0.005658  p :     0.021886
      px      :     0.005603
      py      :     0.010625
 13 H s       :     0.891575  s :     0.891575
      pz      :     0.005091  p :     0.021835
      px      :     0.006414
      py      :     0.010330
 14 H s       :     0.634684  s :     0.634684
      pz      :     0.015348  p :     0.047081
      px      :     0.011625
      py      :     0.020107
 15 H s       :     0.639114  s :     0.639114
      pz      :     0.016315  p :     0.046502
      px      :     0.013422
      py      :     0.016765
 16 H s       :     0.878010  s :     0.878010
      pz      :     0.006898  p :     0.021078
      px      :     0.004932
      py      :     0.009248
 17 H s       :     0.894889  s :     0.894889
      pz      :     0.007480  p :     0.021207
      px      :     0.004677
      py      :     0.009050
 18 H s       :     0.887581  s :     0.887581
      pz      :     0.004995  p :     0.020573
      px      :     0.011768
      py      :     0.003809
 19 H s       :     0.889109  s :     0.889109
      pz      :     0.006380  p :     0.020225
      px      :     0.004292
      py      :     0.009553
 20 H s       :     0.745098  s :     0.745098
      pz      :     0.010159  p :     0.036345
      px      :     0.016557
      py      :     0.009630
 21 H s       :     0.762003  s :     0.762003
      pz      :     0.014840  p :     0.036184
      px      :     0.010964
      py      :     0.010380


                     *******************************
                     * LOEWDIN POPULATION ANALYSIS *
                     *******************************

----------------------
LOEWDIN ATOMIC CHARGES
----------------------
   0 C :   -0.130229
   1 C :   -0.123455
   2 C :   -0.270315
   3 C :   -0.166135
   4 C :   -0.130502
   5 C :   -0.268385
   6 O :    0.096353
   7 O :    0.065983
   8 C :   -0.231720
   9 C :   -0.342129
  10 N :   -0.172140
  11 H :    0.149231
  12 H :    0.151008
  13 H :    0.147085
  14 H :    0.194477
  15 H :    0.192768
  16 H :    0.147511
  17 H :    0.145831
  18 H :    0.128610
  19 H :    0.115441
  20 H :    0.152863
  21 H :    0.147848

-------------------------------
LOEWDIN REDUCED ORBITAL CHARGES
-------------------------------
  0 C s       :     2.761462  s :     2.761462
      pz      :     0.951095  p :     2.955192
      px      :     1.010061
      py      :     0.994035
      dz2     :     0.030444  d :     0.371842
      dxz     :     0.068071
      dyz     :     0.038493
      dx2y2   :     0.124000
      dxy     :     0.110833
      f0      :     0.003616  f :     0.041734
      f+1     :     0.005113
      f-1     :     0.002647
      f+2     :     0.005714
      f-2     :     0.004978
      f+3     :     0.007312
      f-3     :     0.012353
  1 C s       :     2.765682  s :     2.765682
      pz      :     0.927147  p :     2.948992
      px      :     1.032903
      py      :     0.988942
      dz2     :     0.028980  d :     0.366662
      dxz     :     0.065022
      dyz     :     0.040597
      dx2y2   :     0.102762
      dxy     :     0.129301
      f0      :     0.003709  f :     0.042119
      f+1     :     0.004950
      f-1     :     0.002789
      f+2     :     0.005488
      f-2     :     0.005260
      f+3     :     0.007525
      f-3     :     0.012398
  2 C s       :     2.720344  s :     2.720344
      pz      :     0.927273  p :     2.800081
      px      :     0.990986
      py      :     0.881822
      dz2     :     0.060875  d :     0.658614
      dxz     :     0.098734
      dyz     :     0.115803
      dx2y2   :     0.170332
      dxy     :     0.212870
      f0      :     0.007388  f :     0.091275
      f+1     :     0.006918
      f-1     :     0.008031
      f+2     :     0.007871
      f-2     :     0.016406
      f+3     :     0.015366
      f-3     :     0.029296
  3 C s       :     2.713737  s :     2.713737
      pz      :     0.868569  p :     2.874075
      px      :     0.965964
      py      :     1.039542
      dz2     :     0.041909  d :     0.521431
      dxz     :     0.074306
      dyz     :     0.089864
      dx2y2   :     0.164516
      dxy     :     0.150837
      f0      :     0.004129  f :     0.056893
      f+1     :     0.004334
      f-1     :     0.005028
      f+2     :     0.006014
      f-2     :     0.009107
      f+3     :     0.008781
      f-3     :     0.019500
  4 C s       :     2.761320  s :     2.761320
      pz      :     0.930226  p :     2.942787
      px      :     1.018102
      py      :     0.994459
      dz2     :     0.040832  d :     0.384394
      dxz     :     0.063026
      dyz     :     0.036382
      dx2y2   :     0.104134
      dxy     :     0.140021
      f0      :     0.003040  f :     0.042001
      f+1     :     0.004280
      f-1     :     0.003924
      f+2     :     0.006635
      f-2     :     0.004237
      f+3     :     0.007376
      f-3     :     0.012509
  5 C s       :     2.717745  s :     2.717745
      pz      :     0.893283  p :     2.794035
      px      :     0.843929
      py      :     1.056823
      dz2     :     0.065223  d :     0.664332
      dxz     :     0.136343
      dyz     :     0.082305
      dx2y2   :     0.195187
      dxy     :     0.185274
      f0      :     0.006748  f :     0.092273
      f+1     :     0.011374
      f-1     :     0.005237
      f+2     :     0.015782
      f-2     :     0.009883
      f+3     :     0.015166
      f-3     :     0.028082
  6 O s       :     3.336301  s :     3.336301
      pz      :     1.675373  p :     4.491228
      px      :     1.382634
      py      :     1.433222
      dz2     :     0.009554  d :     0.071232
      dxz     :     0.015715
      dyz     :     0.001803
      dx2y2   :     0.023289
      dxy     :     0.020872
      f0      :     0.000351  f :     0.004885
      f+1     :     0.000800
      f-1     :     0.000397
      f+2     :     0.000734
      f-2     :     0.000238
      f+3     :     0.001134
      f-3     :     0.001232
  7 O s       :     3.336177  s :     3.336177
      pz      :     1.691684  p :     4.522835
      px      :     1.566444
      py      :     1.264707
      dz2     :     0.006565  d :     0.070238
      dxz     :     0.006887
      dyz     :     0.012943
      dx2y2   :     0.016934
      dxy     :     0.026910
      f0      :     0.000558  f :     0.004766
      f+1     :     0.000231
      f-1     :     0.000525
      f+2     :     0.000115
      f-2     :     0.001004
      f+3     :     0.001318
      f-3     :     0.001016
  8 C s       :     2.777295  s :     2.777295
      pz      :     1.017670  p :     3.036478
      px      :     0.995610
      py      :     1.023198
      dz2     :     0.052391  d :     0.380454
      dxz     :     0.096200
      dyz     :     0.089352
      dx2y2   :     0.085972
      dxy     :     0.056539
      f0      :     0.006946  f :     0.037492
      f+1     :     0.007199
      f-1     :     0.002053
      f+2     :     0.005942
      f-2     :     0.004595
      f+3     :     0.004089
      f-3     :     0.006667
  9 C s       :     2.804246  s :     2.804246
      pz      :     1.008586  p :     2.998329
      px      :     1.028424
      py      :     0.961319
      dz2     :     0.101260  d :     0.487559
      dxz     :     0.068177
      dyz     :     0.127971
      dx2y2   :     0.147201
      dxy     :     0.042950
      f0      :     0.008543  f :     0.051994
      f+1     :     0.004939
      f-1     :     0.010733
      f+2     :     0.006842
      f-2     :     0.008203
      f+3     :     0.006736
      f-3     :     0.005999
 10 N s       :     3.097765  s :     3.097765
      pz      :     1.298903  p :     3.925838
      px      :     1.160694
      py      :     1.466241
      dz2     :     0.023472  d :     0.138538
      dxz     :     0.039319
      dyz     :     0.021353
      dx2y2   :     0.036891
      dxy     :     0.017503
      f0      :     0.001073  f :     0.009998
      f+1     :     0.001304
      f-1     :     0.001585
      f+2     :     0.001757
      f-2     :     0.001005
      f+3     :     0.002204
      f-3     :     0.001070
 11 H s       :     0.791399  s :     0.791399
      pz      :     0.016078  p :     0.059370
      px      :     0.015554
      py      :     0.027738
 12 H s       :     0.789966  s :     0.789966
      pz      :     0.015370  p :     0.059026
      px      :     0.015453
      py      :     0.028203
 13 H s       :     0.794440  s :     0.794440
      pz      :     0.013938  p :     0.058475
      px      :     0.017394
      py      :     0.027143
 14 H s       :     0.655022  s :     0.655022
      pz      :     0.039967  p :     0.150501
      px      :     0.029690
      py      :     0.080844
 15 H s       :     0.657739  s :     0.657739
      pz      :     0.045320  p :     0.149493
      px      :     0.049580
      py      :     0.054593
 16 H s       :     0.794700  s :     0.794700
      pz      :     0.017687  p :     0.057789
      px      :     0.013212
      py      :     0.026889
 17 H s       :     0.796014  s :     0.796014
      pz      :     0.019320  p :     0.058156
      px      :     0.012398
      py      :     0.026438
 18 H s       :     0.813894  s :     0.813894
      pz      :     0.014864  p :     0.057496
      px      :     0.031763
      py      :     0.010869
 19 H s       :     0.826167  s :     0.826167
      pz      :     0.018066  p :     0.058393
      px      :     0.012640
      py      :     0.027687
 20 H s       :     0.737406  s :     0.737406
      pz      :     0.028700  p :     0.109731
      px      :     0.051668
      py      :     0.029362
 21 H s       :     0.744175  s :     0.744175
      pz      :     0.045716  p :     0.107977
      px      :     0.032717
      py      :     0.029544


                      *****************************
                      * MAYER POPULATION ANALYSIS *
                      *****************************

  NA   - Mulliken gross atomic population
  ZA   - Total nuclear charge
  QA   - Mulliken gross atomic charge
  VA   - Mayer's total valence
  BVA  - Mayer's bonded valence
  FA   - Mayer's free valence

  ATOM       NA         ZA         QA         VA         BVA        FA
  0 C      6.3175     6.0000    -0.3175     3.8867     3.8867    -0.0000
  1 C      6.1869     6.0000    -0.1869     3.9778     3.9778     0.0000
  2 C      5.7238     6.0000     0.2762     3.6709     3.6709    -0.0000
  3 C      5.8680     6.0000     0.1320     3.8305     3.8305    -0.0000
  4 C      6.1988     6.0000    -0.1988     3.9523     3.9523    -0.0000
  5 C      5.8918     6.0000     0.1082     4.1385     4.1385    -0.0000
  6 O      8.3519     8.0000    -0.3519     2.1608     2.1608    -0.0000
  7 O      8.4096     8.0000    -0.4096     2.0873     2.0873    -0.0000
  8 C      6.1431     6.0000    -0.1431     3.8216     3.8216    -0.0000
  9 C      6.1222     6.0000    -0.1222     4.0103     4.0103    -0.0000
 10 N      7.4846     7.0000    -0.4846     2.9524     2.9524     0.0000
 11 H      0.9061     1.0000     0.0939     1.0009     1.0009     0.0000
 12 H      0.9027     1.0000     0.0973     0.9843     0.9843    -0.0000
 13 H      0.9134     1.0000     0.0866     0.9745     0.9745     0.0000
 14 H      0.6818     1.0000     0.3182     0.9241     0.9241    -0.0000
 15 H      0.6856     1.0000     0.3144     0.9225     0.9225     0.0000
 16 H      0.8991     1.0000     0.1009     0.9726     0.9726    -0.0000
 17 H      0.9161     1.0000     0.0839     0.9976     0.9976     0.0000
 18 H      0.9082     1.0000     0.0918     0.9668     0.9668     0.0000
 19 H      0.9093     1.0000     0.0907     0.9612     0.9612    -0.0000
 20 H      0.7814     1.0000     0.2186     0.9461     0.9461    -0.0000
 21 H      0.7982     1.0000     0.2018     0.9521     0.9521     0.0000

  Mayer bond orders larger than 0.100000
B(  0-C ,  2-C ) :   1.3017 B(  0-C ,  3-C ) :   1.3847 B(  0-C , 11-H ) :   0.9378 
B(  1-C ,  4-C ) :   1.4147 B(  1-C ,  5-C ) :   1.4226 B(  1-C , 12-H ) :   0.9757 
B(  2-C ,  5-C ) :   1.2673 B(  2-C ,  7-O ) :   1.0561 B(  3-C ,  4-C ) :   1.3562 
B(  3-C ,  8-C ) :   0.9163 B(  4-C , 13-H ) :   0.9793 B(  5-C ,  6-O ) :   1.2247 
B(  6-O , 14-H ) :   0.8666 B(  7-O , 15-H ) :   0.8821 B(  8-C ,  9-C ) :   0.9957 
B(  8-C , 16-H ) :   0.9488 B(  8-C , 17-H ) :   0.9459 B(  9-C , 10-N ) :   1.0797 
B(  9-C , 18-H ) :   0.9380 B(  9-C , 19-H ) :   0.9567 B( 10-N , 20-H ) :   0.9213 
B( 10-N , 21-H ) :   0.9319 

-------
TIMINGS
-------

Total SCF time: 0 days 0 hours 0 min 9 sec 

Total time                  ....       9.559 sec
Sum of individual times     ....       9.196 sec  ( 96.2%)

Fock matrix formation       ....       7.959 sec  ( 83.3%)
  Split-RI-J                ....       2.790 sec  ( 35.1% of F)
  XC integration            ....       5.057 sec  ( 63.5% of F)
    Basis function eval.    ....       1.115 sec  ( 22.1% of XC)
    Density eval.           ....       1.592 sec  ( 31.5% of XC)
    XC-Functional eval.     ....       0.106 sec  (  2.1% of XC)
    XC-Potential eval.      ....       1.430 sec  ( 28.3% of XC)
Diagonalization             ....       0.041 sec  (  0.4%)
Density matrix formation    ....       0.020 sec  (  0.2%)
Population analysis         ....       0.038 sec  (  0.4%)
Initial guess               ....       0.060 sec  (  0.6%)
Orbital Transformation      ....       0.000 sec  (  0.0%)
Orbital Orthonormalization  ....       0.050 sec  (  0.5%)
DIIS solution               ....       0.017 sec  (  0.2%)
SOSCF solution              ....       0.530 sec  (  5.5%)
Grid generation             ....       0.531 sec  (  5.6%)

Maximum memory used throughout the entire SCF-calculation: 48.5 MB


-------------------------------------------------------------------------------
                          DFT DISPERSION CORRECTION                            
                                                                               
                              DFTD3 V3.1  Rev 1                                
                          USING Becke-Johnson damping                          
-------------------------------------------------------------------------------
The PBE functional is recognized
Active option DFTDOPT                   ...         4   

molecular C6(AA) [au] = 4643.895486 


            DFT-D V3
 parameters
 s6 scaling factor         :     1.0000 
 a1 scaling factor         :     0.4289 
 s8 scaling factor         :     0.7875 
 a2 scaling factor         :     4.4407 
 ad hoc parameters k1-k3   :    16.0000     1.3333    -4.0000 

 Edisp/kcal,au: -14.512590067582  -0.023127281929 
 E6   /kcal   : -10.273049336 
 E8   /kcal   :  -4.239540732 
 % E8         :  29.212846996 

-------------------------   ----------------
Dispersion correction           -0.023127282
-------------------------   ----------------


-------------------------   --------------------
FINAL SINGLE POINT ENERGY      -516.268444563891
-------------------------   --------------------

                                *** OPTIMIZATION RUN DONE ***

                            ***************************************
                            *     ORCA property calculations      *
                            ***************************************

                                    ---------------------
                                    Active property flags
                                    ---------------------
   (+) Dipole Moment


------------------------------------------------------------------------------
                       ORCA ELECTRIC PROPERTIES CALCULATION
------------------------------------------------------------------------------

Dipole Moment Calculation                       ... on
Quadrupole Moment Calculation                   ... off
Polarizability Calculation                      ... off
GBWName                                         ... M00009.gbw
Electron density                                ... M00009.scfp
The origin for moment calculation is the CENTER OF MASS  = (-0.135303, -0.001820  0.002726)

-------------
DIPOLE MOMENT
-------------
                                X             Y             Z
Electronic contribution:    -11.52963      -0.62125      -0.25292
Nuclear contribution   :     11.88118       0.10389       0.32921
                        -----------------------------------------
Total Dipole Moment    :      0.35155      -0.51735       0.07629
                        -----------------------------------------
Magnitude (a.u.)       :      0.63013
Magnitude (Debye)      :      1.60166



--------------------
Rotational spectrum 
--------------------
 
Rotational constants in cm-1:     0.070548     0.022304     0.018989 
Rotational constants in MHz :  2114.976015   668.643032   569.270536 

 Dipole components along the rotational axes: 
x,y,z [a.u.] :    -0.348145     0.521659    -0.061052 
x,y,z [Debye]:    -0.884914     1.325953    -0.155181 

 

Timings for individual modules:

Sum of individual times         ...      172.479 sec (=   2.875 min)
GTO integral calculation        ...        6.578 sec (=   0.110 min)   3.8 %
SCF iterations                  ...      118.113 sec (=   1.969 min)  68.5 %
SCF Gradient evaluation         ...       47.298 sec (=   0.788 min)  27.4 %
Geometry relaxation             ...        0.490 sec (=   0.008 min)   0.3 %



                             ****ORCA TERMINATED NORMALLY****
TOTAL RUN TIME: 0 days 0 hours 14 minutes 25 seconds 782 msec
