
                                 *****************
                                 * O   R   C   A *
                                 *****************

                                            #,                                       
                                            ###                                      
                                            ####                                     
                                            #####                                    
                                            ######                                   
                                           ########,                                 
                                     ,,################,,,,,                         
                               ,,#################################,,                 
                          ,,##########################################,,             
                       ,#########################################, ''#####,          
                    ,#############################################,,   '####,        
                  ,##################################################,,,,####,       
                ,###########''''           ''''###############################       
              ,#####''   ,,,,##########,,,,          '''####'''          '####       
            ,##' ,,,,###########################,,,                        '##       
           ' ,,###''''                  '''############,,,                           
         ,,##''                                '''############,,,,        ,,,,,,###''
      ,#''                                            '''#######################'''  
     '                                                          ''''####''''         
             ,#######,   #######,   ,#######,      ##                                
            ,#'     '#,  ##    ##  ,#'     '#,    #''#        ######   ,####,        
            ##       ##  ##   ,#'  ##            #'  '#       #        #'  '#        
            ##       ##  #######   ##           ,######,      #####,   #    #        
            '#,     ,#'  ##    ##  '#,     ,#' ,#      #,         ##   #,  ,#        
             '#######'   ##     ##  '#######'  #'      '#     #####' # '####'        



                  #######################################################
                  #                        -***-                        #
                  #          Department of theory and spectroscopy      #
                  #    Directorship and core code : Frank Neese         #
                  #        Max Planck Institute fuer Kohlenforschung    #
                  #                Kaiser Wilhelm Platz 1               #
                  #                 D-45470 Muelheim/Ruhr               #
                  #                      Germany                        #
                  #                                                     #
                  #                  All rights reserved                #
                  #                        -***-                        #
                  #######################################################


                         Program Version 5.0.2 -  RELEASE  -


 With contributions from (in alphabetic order):
   Daniel Aravena         : Magnetic Suceptibility
   Michael Atanasov       : Ab Initio Ligand Field Theory (pilot matlab implementation)
   Alexander A. Auer      : GIAO ZORA, VPT2 properties, NMR spectrum
   Ute Becker             : Parallelization
   Giovanni Bistoni       : ED, misc. LED, open-shell LED, HFLD
   Martin Brehm           : Molecular dynamics
   Dmytro Bykov           : SCF Hessian
   Vijay G. Chilkuri      : MRCI spin determinant printing, contributions to CSF-ICE
   Dipayan Datta          : RHF DLPNO-CCSD density
   Achintya Kumar Dutta   : EOM-CC, STEOM-CC
   Dmitry Ganyushin       : Spin-Orbit,Spin-Spin,Magnetic field MRCI
   Miquel Garcia          : C-PCM and meta-GGA Hessian, CC/C-PCM, Gaussian charge scheme
   Yang Guo               : DLPNO-NEVPT2, F12-NEVPT2, CIM, IAO-localization
   Andreas Hansen         : Spin unrestricted coupled pair/coupled cluster methods
   Benjamin Helmich-Paris : MC-RPA, TRAH-SCF, COSX integrals
   Lee Huntington         : MR-EOM, pCC
   Robert Izsak           : Overlap fitted RIJCOSX, COSX-SCS-MP3, EOM
   Marcus Kettner         : VPT2
   Christian Kollmar      : KDIIS, OOCD, Brueckner-CCSD(T), CCSD density, CASPT2, CASPT2-K
   Simone Kossmann        : Meta GGA functionals, TD-DFT gradient, OOMP2, MP2 Hessian
   Martin Krupicka        : Initial AUTO-CI
   Lucas Lang             : DCDCAS
   Marvin Lechner         : AUTO-CI (C++ implementation), FIC-MRCC
   Dagmar Lenk            : GEPOL surface, SMD
   Dimitrios Liakos       : Extrapolation schemes; Compound Job, initial MDCI parallelization
   Dimitrios Manganas     : Further ROCIS development; embedding schemes
   Dimitrios Pantazis     : SARC Basis sets
   Anastasios Papadopoulos: AUTO-CI, single reference methods and gradients
   Taras Petrenko         : DFT Hessian,TD-DFT gradient, ASA, ECA, R-Raman, ABS, FL, XAS/XES, NRVS
   Peter Pinski           : DLPNO-MP2, DLPNO-MP2 Gradient
   Christoph Reimann      : Effective Core Potentials
   Marius Retegan         : Local ZFS, SOC
   Christoph Riplinger    : Optimizer, TS searches, QM/MM, DLPNO-CCSD(T), (RO)-DLPNO pert. Triples
   Tobias Risthaus        : Range-separated hybrids, TD-DFT gradient, RPA, STAB
   Michael Roemelt        : Original ROCIS implementation
   Masaaki Saitow         : Open-shell DLPNO-CCSD energy and density
   Barbara Sandhoefer     : DKH picture change effects
   Avijit Sen             : IP-ROCIS
   Kantharuban Sivalingam : CASSCF convergence, NEVPT2, FIC-MRCI
   Bernardo de Souza      : ESD, SOC TD-DFT
   Georgi Stoychev        : AutoAux, RI-MP2 NMR, DLPNO-MP2 response
   Willem Van den Heuvel  : Paramagnetic NMR
   Boris Wezisla          : Elementary symmetry handling
   Frank Wennmohs         : Technical directorship


 We gratefully acknowledge several colleagues who have allowed us to
 interface, adapt or use parts of their codes:
   Stefan Grimme, W. Hujo, H. Kruse, P. Pracht,  : VdW corrections, initial TS optimization,
                  C. Bannwarth, S. Ehlert          DFT functionals, gCP, sTDA/sTD-DF
   Ed Valeev, F. Pavosevic, A. Kumar             : LibInt (2-el integral package), F12 methods
   Garnet Chan, S. Sharma, J. Yang, R. Olivares  : DMRG
   Ulf Ekstrom                                   : XCFun DFT Library
   Mihaly Kallay                                 : mrcc  (arbitrary order and MRCC methods)
   Jiri Pittner, Ondrej Demel                    : Mk-CCSD
   Frank Weinhold                                : gennbo (NPA and NBO analysis)
   Christopher J. Cramer and Donald G. Truhlar   : smd solvation model
   Lars Goerigk                                  : TD-DFT with DH, B97 family of functionals
   V. Asgeirsson, H. Jonsson                     : NEB implementation
   FAccTs GmbH                                   : IRC, NEB, NEB-TS, DLPNO-Multilevel, CI-OPT
                                                   MM, QMMM, 2- and 3-layer-ONIOM, Crystal-QMMM,
                                                   LR-CPCM, SF, NACMEs, symmetry and pop. for TD-DFT,
                                                   nearIR, NL-DFT gradient (VV10), updates on ESD,
                                                   ML-optimized integration grids
   S Lehtola, MJT Oliveira, MAL Marques          : LibXC Library
   Liviu Ungur et al                             : ANISO software


 Your calculation uses the libint2 library for the computation of 2-el integrals
 For citations please refer to: http://libint.valeyev.net

 Your ORCA version has been built with support for libXC version: 5.1.0
 For citations please refer to: https://tddft.org/programs/libxc/

 This ORCA versions uses:
   CBLAS   interface :  Fast vector & matrix operations
   LAPACKE interface :  Fast linear algebra routines
   SCALAPACK package :  Parallel linear algebra routines
   Shared memory     :  Shared parallel matrices
   BLAS/LAPACK       :  OpenBLAS 0.3.15  USE64BITINT DYNAMIC_ARCH NO_AFFINITY Haswell SINGLE_THREADED
        Core in use  :  Haswell
   Copyright (c) 2011-2014, The OpenBLAS Project


Your calculation utilizes the atom-pairwise dispersion correction
with the Becke-Johnson damping scheme (D3BJ)
Cite in your paper:
S.Grimme, S.Ehrlich, L.Goerigk, J Comput Chem, (2011), 32, 1456–1465 
S.Grimme, J.Antony, S.Ehrlich and H.Krieg, J.Chem.Phys., 132, (2010), 154104 
   

================================================================================

----- Orbital basis set information -----
Your calculation utilizes the basis: def2-TZVP
   F. Weigend and R. Ahlrichs, Phys. Chem. Chem. Phys. 7, 3297 (2005).

----- AuxJ basis set information -----
Your calculation utilizes the auxiliary basis: def2/J
   F. Weigend, Phys. Chem. Chem. Phys. 8, 1057 (2006).

================================================================================
                                        WARNINGS
                       Please study these warnings very carefully!
================================================================================


INFO   : the flag for use of the SHARK integral package has been found!

Your calculation utilizes the atom-pairwise dispersion correction
with the Becke-Johnson damping scheme (D3BJ)
Cite in your paper:
S.Grimme, S.Ehrlich, L.Goerigk, J Comput Chem, (2011), 32, 1456–1465 
S.Grimme, J.Antony, S.Ehrlich and H.Krieg, J.Chem.Phys., 132, (2010), 154104 
   

================================================================================

----- Orbital basis set information -----
Your calculation utilizes the basis: def2-TZVP
   F. Weigend and R. Ahlrichs, Phys. Chem. Chem. Phys. 7, 3297 (2005).

----- AuxJ basis set information -----
Your calculation utilizes the auxiliary basis: def2/J
   F. Weigend, Phys. Chem. Chem. Phys. 8, 1057 (2006).

================================================================================
                                        WARNINGS
                       Please study these warnings very carefully!
================================================================================


WARNING: MOInp is set but Guess=PModel. MOInp will be ignored!
         To read the initial guess from a file you must also specify
         'MORead' in the simple input or 'Guess MORead' in the %scf block


INFO   : the flag for use of the SHARK integral package has been found!

Your calculation utilizes the atom-pairwise dispersion correction
with the Becke-Johnson damping scheme (D3BJ)
Cite in your paper:
S.Grimme, S.Ehrlich, L.Goerigk, J Comput Chem, (2011), 32, 1456–1465 
S.Grimme, J.Antony, S.Ehrlich and H.Krieg, J.Chem.Phys., 132, (2010), 154104 
   

================================================================================

----- Orbital basis set information -----
Your calculation utilizes the basis: def2-TZVP
   F. Weigend and R. Ahlrichs, Phys. Chem. Chem. Phys. 7, 3297 (2005).

----- AuxJ basis set information -----
Your calculation utilizes the auxiliary basis: def2/J
   F. Weigend, Phys. Chem. Chem. Phys. 8, 1057 (2006).

================================================================================
                                        WARNINGS
                       Please study these warnings very carefully!
================================================================================


WARNING: MOInp is set but Guess=PModel. MOInp will be ignored!
         To read the initial guess from a file you must also specify
         'MORead' in the simple input or 'Guess MORead' in the %scf block


INFO   : the flag for use of the SHARK integral package has been found!

Your calculation utilizes the atom-pairwise dispersion correction
with the Becke-Johnson damping scheme (D3BJ)
Cite in your paper:
S.Grimme, S.Ehrlich, L.Goerigk, J Comput Chem, (2011), 32, 1456–1465 
S.Grimme, J.Antony, S.Ehrlich and H.Krieg, J.Chem.Phys., 132, (2010), 154104 
   

================================================================================

----- Orbital basis set information -----
Your calculation utilizes the basis: def2-TZVP
   F. Weigend and R. Ahlrichs, Phys. Chem. Chem. Phys. 7, 3297 (2005).

----- AuxJ basis set information -----
Your calculation utilizes the auxiliary basis: def2/J
   F. Weigend, Phys. Chem. Chem. Phys. 8, 1057 (2006).

================================================================================
                                        WARNINGS
                       Please study these warnings very carefully!
================================================================================


WARNING: MOInp is set but Guess=PModel. MOInp will be ignored!
         To read the initial guess from a file you must also specify
         'MORead' in the simple input or 'Guess MORead' in the %scf block


INFO   : the flag for use of the SHARK integral package has been found!

Your calculation utilizes the atom-pairwise dispersion correction
with the Becke-Johnson damping scheme (D3BJ)
Cite in your paper:
S.Grimme, S.Ehrlich, L.Goerigk, J Comput Chem, (2011), 32, 1456–1465 
S.Grimme, J.Antony, S.Ehrlich and H.Krieg, J.Chem.Phys., 132, (2010), 154104 
   

================================================================================

----- Orbital basis set information -----
Your calculation utilizes the basis: def2-TZVP
   F. Weigend and R. Ahlrichs, Phys. Chem. Chem. Phys. 7, 3297 (2005).

----- AuxJ basis set information -----
Your calculation utilizes the auxiliary basis: def2/J
   F. Weigend, Phys. Chem. Chem. Phys. 8, 1057 (2006).

================================================================================
                                        WARNINGS
                       Please study these warnings very carefully!
================================================================================


WARNING: MOInp is set but Guess=PModel. MOInp will be ignored!
         To read the initial guess from a file you must also specify
         'MORead' in the simple input or 'Guess MORead' in the %scf block


INFO   : the flag for use of the SHARK integral package has been found!

================================================================================
                                       INPUT FILE
================================================================================
NAME = ex.inp
|  1> ! PBE D3 def2-TZVP opt PModel NOAUTOSTART cpcm(water)
|  2> 
|  3> %pal nprocs=16 end
|  4> %geom maxiter=200 end
|  5> %base "1_M00018"
|  6> 
|  7> * xyz 0 1
|  8> C       -0.074381     -1.017724     -0.365733
|  9> C       -1.104295      1.582582     -0.145174
| 10> C       -1.404297     -0.807838     -0.028468
| 11> C        0.764127      0.082008     -0.598285
| 12> C        0.237318      1.380673     -0.485702
| 13> C       -1.918680      0.480698      0.082127
| 14> O       -3.237740      0.612654      0.417989
| 15> O       -2.212182     -1.885801      0.196219
| 16> C        2.216363     -0.129253     -0.958825
| 17> C        3.082353     -0.623390      0.210232
| 18> N        3.177358      0.336596      1.311590
| 19> H        0.300199     -2.034529     -0.445753
| 20> H       -1.486399      2.594964     -0.065194
| 21> H        0.872918      2.245792     -0.664027
| 22> H       -3.446612      1.561874      0.452057
| 23> H       -3.082382     -1.496456      0.413871
| 24> H        2.639984      0.798710     -1.364264
| 25> H        2.266265     -0.859784     -1.776551
| 26> H        2.697246     -1.571127      0.602530
| 27> H        4.094823     -0.820415     -0.159063
| 28> H        2.243593      0.479729      1.700370
| 29> H        3.467199      1.243717      0.950192
| 30> *
| 31> 
| 32> $new_job
| 33> 
| 34> ! PBE D3 def2-TZVP opt PModel NOAUTOSTART cpcm(water)
| 35> 
| 36> %pal nprocs=16 end
| 37> %geom maxiter=200 end
| 38> %base "2_M00016"
| 39> 
| 40> * xyz 0 1
| 41> C       -0.046652     -0.911071     -0.532758
| 42> C       -1.135871      1.590984      0.120364
| 43> C       -1.381293     -0.790692     -0.171165
| 44> C        0.766734      0.230357     -0.570469
| 45> C        0.210423      1.479188     -0.241853
| 46> C       -1.925139      0.448711      0.153453
| 47> O       -3.247017      0.492122      0.501091
| 48> O       -2.163985     -1.909307     -0.134001
| 49> C        2.225367      0.115784     -0.948125
| 50> C        3.187017      0.283614      0.238177
| 51> N        3.056643     -0.765978      1.249695
| 52> H        0.350146     -1.891510     -0.780768
| 53> H       -1.540199      2.566466      0.369856
| 54> H        0.828192      2.374941     -0.266569
| 55> H       -3.475863      1.416560      0.698663
| 56> H       -3.044027     -1.580947      0.138402
| 57> H        2.448055      0.881624     -1.702239
| 58> H        2.410633     -0.847709     -1.440388
| 59> H        4.216463      0.270880     -0.136514
| 60> H        3.036819      1.255781      0.720669
| 61> H        3.152908     -1.679303      0.806926
| 62> H        2.104875     -0.748710      1.621641
| 63> *
| 64> 
| 65> $new_job
| 66> 
| 67> ! PBE D3 def2-TZVP opt PModel NOAUTOSTART cpcm(water)
| 68> 
| 69> %pal nprocs=16 end
| 70> %geom maxiter=200 end
| 71> %base "3_M00017"
| 72> 
| 73> * xyz 0 1
| 74> C       -0.096290     -0.980680     -0.380034
| 75> C       -1.093748      1.628719     -0.119334
| 76> C       -1.426063     -0.761674     -0.034967
| 77> C        0.753785      0.116531     -0.597470
| 78> C        0.242883      1.419760     -0.465428
| 79> C       -1.916883      0.534394      0.093448
| 80> O       -3.223537      0.738544      0.432986
| 81> O       -2.294151     -1.794580      0.190192
| 82> C        2.204965     -0.098569     -0.963399
| 83> C        3.061932     -0.647382      0.187695
| 84> N        3.161017      0.263425      1.328196
| 85> H        0.289586     -1.990431     -0.482505
| 86> H       -1.488408      2.634977     -0.017445
| 87> H        0.883530      2.283311     -0.631270
| 88> H       -3.593589     -0.161702      0.527334
| 89> H       -1.807899     -2.628635      0.073169
| 90> H        2.641810      0.838598     -1.331885
| 91> H        2.246887     -0.798253     -1.808050
| 92> H        2.665647     -1.606474      0.539090
| 93> H        4.073806     -0.840366     -0.185405
| 94> H        2.224215      0.433815      1.699234
| 95> H        3.495319      1.172886      1.011874
| 96> *
| 97> 
| 98> $new_job
| 99> 
|100> ! PBE D3 def2-TZVP opt PModel NOAUTOSTART cpcm(water)
|101> 
|102> %pal nprocs=16 end
|103> %geom maxiter=200 end
|104> %base "4_M00019"
|105> 
|106> * xyz 0 1
|107> C       -0.097842     -0.920923     -0.507016
|108> C       -1.088360      1.633502      0.099122
|109> C       -1.428703     -0.744990     -0.141290
|110> C        0.756518      0.192278     -0.571721
|111> C        0.248624      1.467925     -0.268154
|112> C       -1.915788      0.523640      0.159826
|113> O       -3.223202      0.684992      0.518892
|114> O       -2.301868     -1.795143     -0.062972
|115> C        2.207753      0.023049     -0.960862
|116> C        3.195356      0.258187      0.192596
|117> N        3.050100     -0.699765      1.289265
|118> H        0.284043     -1.909754     -0.741520
|119> H       -1.479477      2.618504      0.334658
|120> H        0.893223      2.343263     -0.316124
|121> H       -3.596815     -0.218147      0.490285
|122> H       -1.826082     -2.604210     -0.317039
|123> H        2.430202      0.726552     -1.773489
|124> H        2.368378     -0.977823     -1.382028
|125> H        4.216832      0.180995     -0.195948
|126> H        3.085180      1.271284      0.594843
|127> H        3.090981     -1.649669      0.924310
|128> H        2.118048     -0.597443      1.694836
|129> *
|130> 
|131> $new_job
|132> 
|133> ! PBE D3 def2-TZVP opt PModel NOAUTOSTART cpcm(water)
|134> 
|135> %pal nprocs=16 end
|136> %geom maxiter=200 end
|137> %base "5_M00009"
|138> 
|139> * xyz 0 1
|140> C       -0.049461     -0.828565     -0.561212
|141> C       -1.172466      1.627940      0.197374
|142> C       -1.385624     -0.747650     -0.184629
|143> C        0.742258      0.331521     -0.562141
|144> C        0.170509      1.557196     -0.178807
|145> C       -1.939028      0.473028      0.191172
|146> O       -3.251769      0.541284      0.560998
|147> O       -2.197998     -1.848023     -0.165013
|148> C        2.201740      0.257709     -0.950510
|149> C        3.155311      0.222943      0.252043
|150> N        3.032140     -1.008935      1.033705
|151> H        0.391890     -1.778825     -0.848292
|152> H       -1.615604      2.574160      0.491949
|153> H        0.769067      2.465545     -0.172506
|154> H       -3.575698     -0.377350      0.474120
|155> H       -1.673244     -2.611967     -0.460856
|156> H        2.440663      1.130512     -1.571924
|157> H        2.374118     -0.616184     -1.592177
|158> H        4.185601      0.294398     -0.113247
|159> H        2.980476      1.084018      0.907054
|160> H        2.091859     -1.052374      1.430225
|161> H        3.664593     -0.960214      1.832092
|162> *
|163> 
|164> 
|165> 
|166> 
|167>                          ****END OF INPUT****
================================================================================


                 $$$$$$$$$$$$$$$$$$$$$$$$$$$$$$$$$$$$$$$$$$$$$$ 
                 $ THERE ARE  5 JOBS TO BE PROCESSED THIS RUN $
                 $$$$$$$$$$$$$$$$$$$$$$$$$$$$$$$$$$$$$$$$$$$$$$ 




                 $$$$$$$$$$$$$$$$  JOB NUMBER  1 $$$$$$$$$$$$$$


                       *****************************
                       * Geometry Optimization Run *
                       *****************************

Geometry optimization settings:
Update method            Update   .... BFGS
Choice of coordinates    CoordSys .... Z-matrix Internals
Initial Hessian          InHess   .... Almoef's Model

Convergence Tolerances:
Energy Change            TolE     ....  5.0000e-06 Eh
Max. Gradient            TolMAXG  ....  3.0000e-04 Eh/bohr
RMS Gradient             TolRMSG  ....  1.0000e-04 Eh/bohr
Max. Displacement        TolMAXD  ....  4.0000e-03 bohr
RMS Displacement         TolRMSD  ....  2.0000e-03 bohr
Strict Convergence                ....  False
------------------------------------------------------------------------------
                        ORCA OPTIMIZATION COORDINATE SETUP
------------------------------------------------------------------------------

The optimization will be done in new redundant internal coordinates
Making redundant internal coordinates   ...  (new redundants) done
Evaluating the initial hessian          ...  (Almloef) done
Evaluating the coordinates              ...  done
Calculating the B-matrix                .... done
Calculating the G-matrix                .... done
Diagonalizing the G-matrix              .... done
Small eigenvalue found = 1.848e-02
Small eigenvalue found = 2.946e-02
The first mode is                       ....   46
The number of degrees of freedom        ....   60

    -----------------------------------------------------------------
                    Redundant Internal Coordinates


    -----------------------------------------------------------------
         Definition                    Initial Value    Approx d2E/dq
    -----------------------------------------------------------------
      1. B(C   2,C   0)                  1.3880         0.629460   
      2. B(C   3,C   0)                  1.4024         0.597082   
      3. B(C   4,C   3)                  1.4060         0.589210   
      4. B(C   4,C   1)                  1.3988         0.604913   
      5. B(C   5,C   2)                  1.3918         0.620647   
      6. B(C   5,C   1)                  1.3889         0.627331   
      7. B(O   6,C   5)                  1.3675         0.607753   
      8. B(O   7,C   2)                  1.3657         0.611825   
      9. B(C   8,C   3)                  1.5112         0.400343   
     10. B(C   9,C   8)                  1.5365         0.364772   
     11. B(N  10,C   9)                  1.4641         0.426240   
     12. B(H  11,C   0)                  1.0866         0.364684   
     13. B(H  12,C   1)                  1.0850         0.366718   
     14. B(H  13,C   4)                  1.0882         0.362465   
     15. B(H  14,O   6)                  0.9725         0.496572   
     16. B(H  15,O   7)                  0.9779         0.486937   
     17. B(H  16,C   8)                  1.0977         0.350053   
     18. B(H  17,C   8)                  1.0977         0.350117   
     19. B(H  18,C   9)                  1.0956         0.352725   
     20. B(H  19,C   9)                  1.0956         0.352795   
     21. B(H  20,N  10)                  1.0215         0.414740   
     22. B(H  21,N  10)                  1.0186         0.419297   
     23. A(C   2,C   0,C   3)          119.6452         0.432312   
     24. A(C   3,C   0,H  11)          121.0323         0.351419   
     25. A(C   2,C   0,H  11)          119.3225         0.354574   
     26. A(C   4,C   1,H  12)          119.3656         0.352525   
     27. A(C   5,C   1,H  12)          121.4445         0.354705   
     28. A(C   4,C   1,C   5)          119.1899         0.433062   
     29. A(C   0,C   2,C   5)          120.8921         0.435332   
     30. A(C   5,C   2,O   7)          119.9365         0.430281   
     31. A(C   0,C   2,O   7)          119.1714         0.431371   
     32. A(C   4,C   3,C   8)          120.5521         0.397959   
     33. A(C   0,C   3,C   8)          120.3013         0.398888   
     34. A(C   0,C   3,C   4)          119.1460         0.427215   
     35. A(C   1,C   4,C   3)          120.8104         0.428214   
     36. A(C   3,C   4,H  13)          120.1552         0.350271   
     37. A(C   1,C   4,H  13)          119.0344         0.351831   
     38. A(C   1,C   5,O   6)          121.9523         0.430592   
     39. A(C   1,C   5,C   2)          120.3164         0.435067   
     40. A(C   2,C   5,O   6)          117.7313         0.429765   
     41. A(C   5,O   6,H  14)          108.0558         0.365950   
     42. A(C   2,O   7,H  15)          104.4047         0.365141   
     43. A(C   3,C   8,C   9)          113.8954         0.366183   
     44. A(C   3,C   8,H  17)          108.3290         0.326518   
     45. A(C   9,C   8,H  16)          109.5962         0.321558   
     46. A(C   3,C   8,H  16)          109.9260         0.326508   
     47. A(C   9,C   8,H  17)          109.0967         0.321568   
     48. A(H  16,C   8,H  17)          105.6596         0.288279   
     49. A(C   8,C   9,H  19)          108.7976         0.321969   
     50. A(N  10,C   9,H  18)          108.7015         0.328331   
     51. A(C   8,C   9,H  18)          110.6411         0.321959   
     52. A(N  10,C   9,H  19)          108.1504         0.328341   
     53. A(C   8,C   9,N  10)          113.4568         0.367830   
     54. A(H  18,C   9,H  19)          106.8556         0.288967   
     55. A(H  20,N  10,H  21)          105.6854         0.299703   
     56. A(C   9,N  10,H  21)          109.6031         0.334981   
     57. A(C   9,N  10,H  20)          108.5931         0.334374   
     58. D(C   5,C   2,C   0,C   3)      0.0160         0.027469   
     59. D(C   5,C   2,C   0,H  11)   -179.9547         0.027469   
     60. D(O   7,C   2,C   0,H  11)      0.0448         0.027469   
     61. D(O   7,C   2,C   0,C   3)   -179.9846         0.027469   
     62. D(C   8,C   3,C   0,C   2)    179.6582         0.024564   
     63. D(C   4,C   3,C   0,C   2)     -0.0621         0.024564   
     64. D(C   4,C   3,C   0,H  11)    179.9080         0.024564   
     65. D(C   8,C   3,C   0,H  11)     -0.3716         0.024564   
     66. D(C   1,C   4,C   3,C   8)   -179.6506         0.023888   
     67. D(C   1,C   4,C   3,C   0)      0.0690         0.023888   
     68. D(H  13,C   4,C   1,H  12)      0.0066         0.025248   
     69. D(C   3,C   4,C   1,C   5)     -0.0286         0.025248   
     70. D(H  13,C   4,C   1,C   5)    179.9511         0.025248   
     71. D(H  13,C   4,C   3,C   0)   -179.9105         0.023888   
     72. D(C   3,C   4,C   1,H  12)   -179.9731         0.025248   
     73. D(H  13,C   4,C   3,C   8)      0.3698         0.023888   
     74. D(O   6,C   5,C   2,O   7)      0.0050         0.026658   
     75. D(C   1,C   5,C   2,O   7)   -179.9743         0.026658   
     76. D(O   6,C   5,C   1,H  12)     -0.0538         0.027272   
     77. D(O   6,C   5,C   1,C   4)   -179.9971         0.027272   
     78. D(C   1,C   5,C   2,C   0)      0.0251         0.026658   
     79. D(O   6,C   5,C   2,C   0)   -179.9956         0.026658   
     80. D(C   2,C   5,C   1,H  12)    179.9246         0.027272   
     81. D(C   2,C   5,C   1,C   4)     -0.0187         0.027272   
     82. D(H  14,O   6,C   5,C   2)   -179.7705         0.027023   
     83. D(H  14,O   6,C   5,C   1)      0.2084         0.027023   
     84. D(H  15,O   7,C   2,C   5)     -0.0657         0.027412   
     85. D(H  15,O   7,C   2,C   0)    179.9349         0.027412   
     86. D(H  16,C   8,C   3,C   0)    164.7169         0.011894   
     87. D(C   9,C   8,C   3,C   4)    107.8551         0.011894   
     88. D(C   9,C   8,C   3,C   0)    -71.8613         0.011894   
     89. D(H  17,C   8,C   3,C   4)   -130.5622         0.011894   
     90. D(H  17,C   8,C   3,C   0)     49.7214         0.011894   
     91. D(H  16,C   8,C   3,C   4)    -15.5667         0.011894   
     92. D(H  19,C   9,C   8,H  16)    -60.6456         0.010656   
     93. D(H  19,C   9,C   8,C   3)    175.7537         0.010656   
     94. D(H  18,C   9,C   8,H  17)    -62.5015         0.010656   
     95. D(H  18,C   9,C   8,H  16)   -177.7446         0.010656   
     96. D(H  18,C   9,C   8,C   3)     58.6547         0.010656   
     97. D(N  10,C   9,C   8,H  17)    175.0220         0.010656   
     98. D(N  10,C   9,C   8,H  16)     59.7790         0.010656   
     99. D(H  19,C   9,C   8,H  17)     54.5974         0.010656   
    100. D(N  10,C   9,C   8,C   3)    -63.8217         0.010656   
    101. D(H  21,N  10,C   9,H  19)     68.5795         0.015490   
    102. D(H  21,N  10,C   9,H  18)   -175.7544         0.015490   
    103. D(H  21,N  10,C   9,C   8)    -52.2106         0.015490   
    104. D(H  20,N  10,C   9,H  19)   -176.4215         0.015490   
    105. D(H  20,N  10,C   9,H  18)    -60.7555         0.015490   
    106. D(H  20,N  10,C   9,C   8)     62.7883         0.015490   
    -----------------------------------------------------------------

Number of atoms                         .... 22
Number of degrees of freedom            .... 106

         *************************************************************
         *                GEOMETRY OPTIMIZATION CYCLE   1            *
         *************************************************************
---------------------------------
CARTESIAN COORDINATES (ANGSTROEM)
---------------------------------
  C     -0.074381   -1.017724   -0.365733
  C     -1.104295    1.582582   -0.145174
  C     -1.404297   -0.807838   -0.028468
  C      0.764127    0.082008   -0.598285
  C      0.237318    1.380673   -0.485702
  C     -1.918680    0.480698    0.082127
  O     -3.237740    0.612654    0.417989
  O     -2.212182   -1.885801    0.196219
  C      2.216363   -0.129253   -0.958825
  C      3.082353   -0.623390    0.210232
  N      3.177358    0.336596    1.311590
  H      0.300199   -2.034529   -0.445753
  H     -1.486399    2.594964   -0.065194
  H      0.872918    2.245792   -0.664027
  H     -3.446612    1.561874    0.452057
  H     -3.082382   -1.496456    0.413871
  H      2.639984    0.798710   -1.364264
  H      2.266265   -0.859784   -1.776551
  H      2.697246   -1.571127    0.602530
  H      4.094823   -0.820415   -0.159063
  H      2.243593    0.479729    1.700370
  H      3.467199    1.243717    0.950192

----------------------------
CARTESIAN COORDINATES (A.U.)
----------------------------
  NO LB      ZA    FRAG     MASS         X           Y           Z
   0 C     6.0000    0    12.011   -0.140560   -1.923220   -0.691135
   1 C     6.0000    0    12.011   -2.086815    2.990647   -0.274339
   2 C     6.0000    0    12.011   -2.653737   -1.526593   -0.053797
   3 C     6.0000    0    12.011    1.443991    0.154973   -1.130595
   4 C     6.0000    0    12.011    0.448466    2.609094   -0.917844
   5 C     6.0000    0    12.011   -3.625780    0.908388    0.155198
   6 O     8.0000    0    15.999   -6.118442    1.157748    0.789885
   7 O     8.0000    0    15.999   -4.180418   -3.563647    0.370800
   8 C     6.0000    0    12.011    4.188319   -0.244253   -1.811917
   9 C     6.0000    0    12.011    5.824803   -1.178036    0.397281
  10 N     7.0000    0    14.007    6.004336    0.636074    2.478546
  11 H     1.0000    0     1.008    0.567294   -3.844703   -0.842351
  12 H     1.0000    0     1.008   -2.808887    4.903771   -0.123199
  13 H     1.0000    0     1.008    1.649576    4.243932   -1.254829
  14 H     1.0000    0     1.008   -6.513153    2.951514    0.854264
  15 H     1.0000    0     1.008   -5.824858   -2.827892    0.782103
  16 H     1.0000    0     1.008    4.988847    1.509343   -2.578085
  17 H     1.0000    0     1.008    4.282620   -1.624756   -3.357195
  18 H     1.0000    0     1.008    5.097056   -2.969000    1.138617
  19 H     1.0000    0     1.008    7.738094   -1.550360   -0.300586
  20 H     1.0000    0     1.008    4.239776    0.906556    3.213234
  21 H     1.0000    0     1.008    6.552057    2.350285    1.795603

--------------------------------
INTERNAL COORDINATES (ANGSTROEM)
--------------------------------
 C      0   0   0     0.000000000000     0.00000000     0.00000000
 C      1   0   0     2.805523197821     0.00000000     0.00000000
 C      1   2   0     1.387975641096    59.26918075     0.00000000
 C      1   2   3     1.402350373691    60.37607015   180.02845998
 C      2   1   3     1.398803776387    59.66750404   180.00611131
 C      2   1   3     1.388897772438    59.52236256     0.00000000
 O      6   2   1     1.367528775778   121.95227700   180.00920684
 O      3   1   2     1.365711042118   119.17143681   179.98692815
 C      4   1   2     1.511161705913   120.30129602   179.68637508
 C      9   4   1     1.536490912475   113.89539138   288.13868293
 N     10   9   4     1.464099899045   113.45675457   296.17826453
 H      1   2   3     1.086556848409   178.59078522     2.05040317
 H      2   1   3     1.085042663281   179.03158820   183.19274898
 H      5   2   1     1.088217831956   119.03442604   179.94485396
 H      7   6   2     0.972525963359   108.05584911     0.20840682
 H      8   3   1     0.977859888803   104.40472661   179.93487285
 H      9   4   1     1.097702538820   109.92603166   164.71691619
 H      9   4   1     1.097652751393   108.32896839    49.72143441
 H     10   9   4     1.095632485563   110.64113857    58.65467567
 H     10   9   4     1.095578910234   108.79763881   175.75366564
 H     11  10   9     1.021544917913   108.59311985    62.78833923
 H     11  10   9     1.018569991864   109.60310980   307.78938786

---------------------------
INTERNAL COORDINATES (A.U.)
---------------------------
 C      0   0   0     0.000000000000     0.00000000     0.00000000
 C      1   0   0     5.301670506245     0.00000000     0.00000000
 C      1   2   0     2.622893842226    59.26918075     0.00000000
 C      1   2   3     2.650058150079    60.37607015   180.02845998
 C      2   1   3     2.643356052466    59.66750404   180.00611131
 C      2   1   3     2.624636417920    59.52236256     0.00000000
 O      6   2   1     2.584254866476   121.95227700   180.00920684
 O      3   1   2     2.580819847675   119.17143681   179.98692815
 C      4   1   2     2.855681768244   120.30129602   179.68637508
 C      9   4   1     2.903547031836   113.89539138   288.13868293
 N     10   9   4     2.766747841898   113.45675457   296.17826453
 H      1   2   3     2.053294872430   178.59078522     2.05040317
 H      2   1   3     2.050433477222   179.03158820   183.19274898
 H      5   2   1     2.056433676445   119.03442604   179.94485396
 H      7   6   2     1.837807728877   108.05584911     0.20840682
 H      8   3   1     1.847887387184   104.40472661   179.93487285
 H      9   4   1     2.074357174879   109.92603166   164.71691619
 H      9   4   1     2.074263090278   108.32896839    49.72143441
 H     10   9   4     2.070445341142   110.64113857    58.65467567
 H     10   9   4     2.070344098443   108.79763881   175.75366564
 H     11  10   9     1.930440128355   108.59311985    62.78833923
 H     11  10   9     1.924818332854   109.60310980   307.78938786

---------------------
BASIS SET INFORMATION
---------------------
There are 4 groups of distinct atoms

 Group   1 Type C   : 11s6p2d1f contracted to 5s3p2d1f pattern {62111/411/11/1}
 Group   2 Type O   : 11s6p2d1f contracted to 5s3p2d1f pattern {62111/411/11/1}
 Group   3 Type N   : 11s6p2d1f contracted to 5s3p2d1f pattern {62111/411/11/1}
 Group   4 Type H   : 5s1p contracted to 3s1p pattern {311/1}

Atom   0C    basis set group =>   1
Atom   1C    basis set group =>   1
Atom   2C    basis set group =>   1
Atom   3C    basis set group =>   1
Atom   4C    basis set group =>   1
Atom   5C    basis set group =>   1
Atom   6O    basis set group =>   2
Atom   7O    basis set group =>   2
Atom   8C    basis set group =>   1
Atom   9C    basis set group =>   1
Atom  10N    basis set group =>   3
Atom  11H    basis set group =>   4
Atom  12H    basis set group =>   4
Atom  13H    basis set group =>   4
Atom  14H    basis set group =>   4
Atom  15H    basis set group =>   4
Atom  16H    basis set group =>   4
Atom  17H    basis set group =>   4
Atom  18H    basis set group =>   4
Atom  19H    basis set group =>   4
Atom  20H    basis set group =>   4
Atom  21H    basis set group =>   4
---------------------------------
AUXILIARY/J BASIS SET INFORMATION
---------------------------------
There are 4 groups of distinct atoms

 Group   1 Type C   : 12s5p4d2f1g contracted to 6s4p3d1f1g pattern {711111/2111/211/2/1}
 Group   2 Type O   : 12s5p4d2f1g contracted to 6s4p3d1f1g pattern {711111/2111/211/2/1}
 Group   3 Type N   : 12s5p4d2f1g contracted to 6s4p3d1f1g pattern {711111/2111/211/2/1}
 Group   4 Type H   : 5s2p1d contracted to 3s1p1d pattern {311/2/1}

Atom   0C    basis set group =>   1
Atom   1C    basis set group =>   1
Atom   2C    basis set group =>   1
Atom   3C    basis set group =>   1
Atom   4C    basis set group =>   1
Atom   5C    basis set group =>   1
Atom   6O    basis set group =>   2
Atom   7O    basis set group =>   2
Atom   8C    basis set group =>   1
Atom   9C    basis set group =>   1
Atom  10N    basis set group =>   3
Atom  11H    basis set group =>   4
Atom  12H    basis set group =>   4
Atom  13H    basis set group =>   4
Atom  14H    basis set group =>   4
Atom  15H    basis set group =>   4
Atom  16H    basis set group =>   4
Atom  17H    basis set group =>   4
Atom  18H    basis set group =>   4
Atom  19H    basis set group =>   4
Atom  20H    basis set group =>   4
Atom  21H    basis set group =>   4
No protocol specified


           ************************************************************
           *        Program running with 16 parallel MPI-processes    *
           *              working on a common directory               *
           ************************************************************
------------------------------------------------------------------------------
                           ORCA GTO INTEGRAL CALCULATION
                           -- RI-GTO INTEGRALS CHOSEN --
------------------------------------------------------------------------------
------------------------------------------------------------------------------
                   ___                                                        
                  /   \      - P O W E R E D   B Y -                         
                 /     \                                                     
                 |  |  |   _    _      __       _____    __    __             
                 |  |  |  | |  | |    /  \     |  _  \  |  |  /  |          
                  \  \/   | |  | |   /    \    | | | |  |  | /  /          
                 / \  \   | |__| |  /  /\  \   | |_| |  |  |/  /          
                |  |  |   |  __  | /  /__\  \  |    /   |      \           
                |  |  |   | |  | | |   __   |  |    \   |  |\   \          
                \     /   | |  | | |  |  |  |  | |\  \  |  | \   \       
                 \___/    |_|  |_| |__|  |__|  |_| \__\ |__|  \__/        
                                                                              
                      - O R C A' S   B I G   F R I E N D -                    
                                      &                                       
                       - I N T E G R A L  F E E D E R -                       
                                                                              
 v1 FN, 2020, v2 2021                                                         
------------------------------------------------------------------------------


Reading SHARK input file 1_M00018.SHARKINP.tmp ... ok
----------------------
SHARK INTEGRAL PACKAGE
----------------------

Number of atoms                             ...     22
Number of basis functions                   ...    407
Number of shells                            ...    165
Maximum angular momentum                    ...      3
Integral batch strategy                     ... SHARK/LIBINT Hybrid
RI-J (if used) integral strategy            ... SPLIT-RIJ (Revised 2003 algorithm where possible)
Printlevel                                  ...      1
Contraction scheme used                     ... SEGMENTED contraction
Coulomb Range Separation                    ... NOT USED
Exchange Range Separation                   ... NOT USED
Finite Nucleus Model                        ... NOT USED
Auxiliary Coulomb fitting basis             ... AVAILABLE
   # of basis functions in Aux-J            ...    660
   # of shells in Aux-J                     ...    220
   Maximum angular momentum in Aux-J        ...      4
Auxiliary J/K fitting basis                 ... NOT available
Auxiliary Correlation fitting basis         ... NOT available
Auxiliary 'external' fitting basis          ... NOT available
Integral threshold                          ...     2.500000e-11
Primitive cut-off                           ...     2.500000e-12
Primitive pair pre-selection threshold      ...     2.500000e-12

Calculating pre-screening integrals         ... done (  0.1 sec) Dimension = 165
Organizing shell pair data                  ... done (  0.3 sec)
Shell pair information
Total number of shell pairs                 ...     13695
Shell pairs after pre-screening             ...     11669
Total number of primitive shell pairs       ...     41316
Primitive shell pairs kept                  ...     25460
          la=0 lb=0:   3213 shell pairs
          la=1 lb=0:   3347 shell pairs
          la=1 lb=1:    897 shell pairs
          la=2 lb=0:   1643 shell pairs
          la=2 lb=1:    863 shell pairs
          la=2 lb=2:    221 shell pairs
          la=3 lb=0:    794 shell pairs
          la=3 lb=1:    425 shell pairs
          la=3 lb=2:    208 shell pairs
          la=3 lb=3:     58 shell pairs

Calculating one electron integrals          ... done (  0.0 sec)
Calculating RI/J V-Matrix + Cholesky decomp.... done (  0.0 sec)
Calculating Nuclear repulsion               ... done (  0.0 sec) ENN=    602.775448051850 Eh

SHARK setup successfully completed in   0.7 seconds

Maximum memory used throughout the entire GTOINT-calculation: 24.5 MB
No protocol specified


           ************************************************************
           *        Program running with 16 parallel MPI-processes    *
           *              working on a common directory               *
           ************************************************************
-------------------------------------------------------------------------------
                                 ORCA SCF
-------------------------------------------------------------------------------

------------
SCF SETTINGS
------------
Hamiltonian:
 Density Functional     Method          .... DFT(GTOs)
 Exchange Functional    Exchange        .... PBE
   PBE kappa parameter   XKappa         ....  0.804000
   PBE mue parameter    XMuePBE         ....  0.219520
 Correlation Functional Correlation     .... PBE
   PBE beta parameter  CBetaPBE         ....  0.066725
 LDA part of GGA corr.  LDAOpt          .... PW91-LDA
 Gradients option       PostSCFGGA      .... off
   Density functional embedding theory  .... OFF
   NL short-range parameter             ....  6.400000
 RI-approximation to the Coulomb term is turned on
   Number of AuxJ basis functions       .... 660


General Settings:
 Integral files         IntName         .... 1_M00018
 Hartree-Fock type      HFTyp           .... RHF
 Total Charge           Charge          ....    0
 Multiplicity           Mult            ....    1
 Number of Electrons    NEL             ....   82
 Basis Dimension        Dim             ....  407
 Nuclear Repulsion      ENuc            ....    602.7754480518 Eh

Convergence Acceleration:
 DIIS                   CNVDIIS         .... on
   Start iteration      DIISMaxIt       ....    12
   Startup error        DIISStart       ....  0.200000
   # of expansion vecs  DIISMaxEq       ....     5
   Bias factor          DIISBfac        ....   1.050
   Max. coefficient     DIISMaxC        ....  10.000
 Trust-Rad. Augm. Hess. CNVTRAH         .... auto
   Auto Start mean grad. ratio tolernc. ....  1.125000
   Auto Start start iteration           ....    20
   Auto Start num. interpolation iter.  ....    10
   Max. Number of Micro iterations      ....    16
   Max. Number of Macro iterations      .... Maxiter - #DIIS iter
   Number of Davidson start vectors     ....     2
   Converg. threshold I  (grad. norm)   ....   1.000e-05
   Converg. threshold II (energy diff.) ....   1.000e-08
   Grad. Scal. Fac. for Micro threshold ....   0.100
   Minimum threshold for Micro iter.    ....   0.010
   NR start threshold (gradient norm)   ....   0.001
   Initial trust radius                 ....   0.400
   Minimum AH scaling param. (alpha)    ....   1.000
   Maximum AH scaling param. (alpha)    .... 1000.000
   Orbital update algorithm             .... Taylor
   White noise on init. David. guess    .... on
   Maximum white noise                  ....   0.010
   Quad. conv. algorithm                .... NR
 SOSCF                  CNVSOSCF        .... on
   Start iteration      SOSCFMaxIt      ....   150
   Startup grad/error   SOSCFStart      ....  0.003300
 Level Shifting         CNVShift        .... on
   Level shift para.    LevelShift      ....    0.2500
   Turn off err/grad.   ShiftErr        ....    0.0010
 Zerner damping         CNVZerner       .... off
 Static damping         CNVDamp         .... on
   Fraction old density DampFac         ....    0.7000
   Max. Damping (<1)    DampMax         ....    0.9800
   Min. Damping (>=0)   DampMin         ....    0.0000
   Turn off err/grad.   DampErr         ....    0.1000
 Fernandez-Rico         CNVRico         .... off

SCF Procedure:
 Maximum # iterations   MaxIter         ....   125
 SCF integral mode      SCFMode         .... Direct
   Integral package                     .... SHARK and LIBINT hybrid scheme
 Reset frequency        DirectResetFreq ....    20
 Integral Threshold     Thresh          ....  2.500e-11 Eh
 Primitive CutOff       TCut            ....  2.500e-12 Eh

Convergence Tolerance:
 Convergence Check Mode ConvCheckMode   .... Total+1el-Energy
 Convergence forced     ConvForced      .... 0
 Energy Change          TolE            ....  1.000e-08 Eh
 1-El. energy change                    ....  1.000e-05 Eh
 Orbital Gradient       TolG            ....  1.000e-05
 Orbital Rotation angle TolX            ....  1.000e-05
 DIIS Error             TolErr          ....  5.000e-07


Diagonalization of the overlap matrix:
Smallest eigenvalue                        ... 8.861e-06
Time for diagonalization                   ...    0.038 sec
Threshold for overlap eigenvalues          ... 1.000e-08
Number of eigenvalues below threshold      ... 0
Time for construction of square roots      ...    0.026 sec
Total time needed                          ...    0.065 sec

Time for model grid setup =    0.124 sec

------------------------------
INITIAL GUESS: MODEL POTENTIAL
------------------------------
Loading Hartree-Fock densities                     ... done
Calculating cut-offs                               ... done
Initializing the effective Hamiltonian             ... done
Setting up the integral package (SHARK)            ... done
Starting the Coulomb interaction                   ... done (   0.1 sec)
Reading the grid                                   ... done
Mapping shells                                     ... done
Starting the XC term evaluation                    ... done (   0.1 sec)
  promolecular density results
     # of electrons  =     81.989705544
     EX              =    -67.038962246
     EC              =     -2.737893882
     EX+EC           =    -69.776856129
Transforming the Hamiltonian                       ... done (   0.0 sec)
Diagonalizing the Hamiltonian                      ... done (   0.0 sec)
Back transforming the eigenvectors                 ... done (   0.0 sec)
Now organizing SCF variables                       ... done
                      ------------------
                      INITIAL GUESS DONE (   0.4 sec)
                      ------------------
-------------------
DFT GRID GENERATION
-------------------

General Integration Accuracy     IntAcc      ... 4.388
Radial Grid Type                 RadialGrid  ... OptM3 with GC (2021)
Angular Grid (max. ang.)         AngularGrid ... 4 (Lebedev-302)
Angular grid pruning method      GridPruning ... 4 (adaptive)
Weight generation scheme         WeightScheme... Becke
Basis function cutoff            BFCut       ... 1.0000e-11
Integration weight cutoff        WCut        ... 1.0000e-14
Angular grids for H and He will be reduced by one unit
Partially contracted basis set               ... off
Rotationally invariant grid construction     ... off

Total number of grid points                  ...   101314
Total number of batches                      ...     1596
Average number of points per batch           ...       63
Average number of grid points per atom       ...     4605
Time for grid setup =    0.775 sec


--------------------
CPCM SOLVATION MODEL
--------------------
CPCM parameters:
  Epsilon                                         ...      80.4000
  Refrac                                          ...       1.3300
  Rsolv                                           ...       1.3000
  Surface type                                    ... GAUSSIAN VDW
  Epsilon function type                           ...         CPCM
Radii:
 Radius for C  used is    3.8550 Bohr (=   2.0400 Ang.)
 Radius for O  used is    3.4469 Bohr (=   1.8240 Ang.)
 Radius for N  used is    3.5149 Bohr (=   1.8600 Ang.)
 Radius for H  used is    2.4944 Bohr (=   1.3200 Ang.)
Calculating surface                               ...        done! (  0.0s)
GEPOL surface points                              ...         1247
GEPOL Volume                                      ...    1281.0889
GEPOL Surface-area                                ...     714.1729
Calculating surface distance matrix               ...        done! (  0.0s)
Performing Cholesky decomposition & store         ...        done! (  0.1s)
Overall time for CPCM initialization              ...                 0.2s
--------------
SCF ITERATIONS
--------------
ITER       Energy         Delta-E        Max-DP      RMS-DP      [F,P]     Damp
               ***  Starting incremental Fock matrix formation  ***
  0   -515.9594369756   0.000000000000 0.20530168  0.00211852  0.2587971 0.7000
  1   -516.1084323901  -0.148995414445 0.22120999  0.00216254  0.1017181 0.7000
                               ***Turning on DIIS***
  2   -516.1588047927  -0.050372402628 0.32718336  0.00349514  0.0242200 0.0000
  3   -516.2373516906  -0.078546897869 0.19101003  0.00165208  0.0635914 0.0000
  4   -516.2588902844  -0.021538593812 0.06074622  0.00060549  0.0121903 0.0000
  5   -516.2603531721  -0.001462887730 0.03029780  0.00030253  0.0058563 0.0000
                      *** Initiating the SOSCF procedure ***
                           *** Shutting down DIIS ***
                      *** Re-Reading the Fockian *** 
                      *** Removing any level shift *** 
ITER      Energy       Delta-E        Grad      Rot      Max-DP    RMS-DP
  6   -516.26048604  -0.0001328646  0.000415  0.000415  0.011215  0.000106
               *** Restarting incremental Fock matrix formation ***
  7   -516.26049361  -0.0000075730  0.000166  0.000844  0.008475  0.000089
  8   -516.26048906   0.0000045504  0.000481  0.001128  0.002544  0.000025
  9   -516.26049615  -0.0000070863  0.000081  0.000452  0.000514  0.000008
 10   -516.26049583   0.0000003139  0.000099  0.000204  0.000451  0.000004
 11   -516.26049627  -0.0000004406  0.000009  0.000026  0.000245  0.000003
 12   -516.26049627   0.0000000021  0.000016  0.000018  0.000028  0.000001
                  ***Gradient check signals convergence***
              ***Rediagonalizing the Fockian in SOSCF/NRSCF***

               *****************************************************
               *                     SUCCESS                       *
               *           SCF CONVERGED AFTER  13 CYCLES          *
               *****************************************************


----------------
TOTAL SCF ENERGY
----------------

Total Energy       :         -516.26049628 Eh          -14048.16230 eV

Components:
Nuclear Repulsion  :          602.77544805 Eh           16402.35382 eV
Electronic Energy  :        -1119.03594433 Eh          -30450.51612 eV
One Electron Energy:        -1897.48981519 Eh          -51633.32286 eV
Two Electron Energy:          778.45387086 Eh           21182.80674 eV
CPCM Dielectric    :           -0.02048697 Eh              -0.55748 eV

Virial components:
Potential Energy   :        -1030.35844334 Eh          -28037.47864 eV
Kinetic Energy     :          514.09794706 Eh           13989.31634 eV
Virial Ratio       :            2.00420649


DFT components:
N(Alpha)           :       41.000037644164 electrons
N(Beta)            :       41.000037644164 electrons
N(Total)           :       82.000075288328 electrons
E(X)               :      -68.338773465342 Eh       
E(C)               :       -2.744374111888 Eh       
E(XC)              :      -71.083147577230 Eh       
DFET-embed. en.    :        0.000000000000 Eh       
CPCM Solvation Model Properties:
Surface-charge          :           -0.02808696
Charge-correction       :            0.00010969 Eh               0.00298 eV
Free-energy (cav+disp)  :  This term is not implemented in the current solvation scheme

---------------
SCF CONVERGENCE
---------------

  Last Energy change         ...   -8.1498e-09  Tolerance :   1.0000e-08
  Last MAX-Density change    ...    5.7450e-04  Tolerance :   1.0000e-07
  Last RMS-Density change    ...    5.9427e-06  Tolerance :   5.0000e-09
  Last Orbital Gradient      ...    1.8190e-06  Tolerance :   1.0000e-05
  Last Orbital Rotation      ...    8.7170e-06  Tolerance :   1.0000e-05

             **** THE GBW FILE WAS UPDATED (1_M00018.gbw) ****
             **** DENSITY 1_M00018.scfp WAS UPDATED ****
             **** ENERGY FILE WAS UPDATED (1_M00018.en.tmp) ****
             **** THE GBW FILE WAS UPDATED (1_M00018.gbw) ****
             **** DENSITY 1_M00018.scfp WAS UPDATED ****
----------------
ORBITAL ENERGIES
----------------

  NO   OCC          E(Eh)            E(eV) 
   0   2.0000     -18.786918      -511.2180 
   1   2.0000     -18.781088      -511.0594 
   2   2.0000     -13.958602      -379.8329 
   3   2.0000      -9.940227      -270.4873 
   4   2.0000      -9.939554      -270.4690 
   5   2.0000      -9.897580      -269.3269 
   6   2.0000      -9.888187      -269.0713 
   7   2.0000      -9.883598      -268.9464 
   8   2.0000      -9.879700      -268.8403 
   9   2.0000      -9.877882      -268.7908 
  10   2.0000      -9.874453      -268.6975 
  11   2.0000      -0.990784       -26.9606 
  12   2.0000      -0.964332       -26.2408 
  13   2.0000      -0.802662       -21.8415 
  14   2.0000      -0.774128       -21.0651 
  15   2.0000      -0.695351       -18.9215 
  16   2.0000      -0.672639       -18.3034 
  17   2.0000      -0.634770       -17.2730 
  18   2.0000      -0.580299       -15.7907 
  19   2.0000      -0.548409       -14.9230 
  20   2.0000      -0.537238       -14.6190 
  21   2.0000      -0.497881       -13.5480 
  22   2.0000      -0.469402       -12.7731 
  23   2.0000      -0.445592       -12.1252 
  24   2.0000      -0.423954       -11.5364 
  25   2.0000      -0.407212       -11.0808 
  26   2.0000      -0.391883       -10.6637 
  27   2.0000      -0.389402       -10.5962 
  28   2.0000      -0.378664       -10.3040 
  29   2.0000      -0.371324       -10.1042 
  30   2.0000      -0.355245        -9.6667 
  31   2.0000      -0.350550        -9.5390 
  32   2.0000      -0.327912        -8.9229 
  33   2.0000      -0.326145        -8.8748 
  34   2.0000      -0.308305        -8.3894 
  35   2.0000      -0.296160        -8.0589 
  36   2.0000      -0.289418        -7.8755 
  37   2.0000      -0.284662        -7.7460 
  38   2.0000      -0.216991        -5.9046 
  39   2.0000      -0.200322        -5.4510 
  40   2.0000      -0.185319        -5.0428 
  41   0.0000      -0.038842        -1.0569 
  42   0.0000      -0.019749        -0.5374 
  43   0.0000       0.011511         0.3132 
  44   0.0000       0.024163         0.6575 
  45   0.0000       0.043859         1.1935 
  46   0.0000       0.049653         1.3511 
  47   0.0000       0.057699         1.5701 
  48   0.0000       0.067467         1.8359 
  49   0.0000       0.080277         2.1845 
  50   0.0000       0.095291         2.5930 
  51   0.0000       0.101723         2.7680 
  52   0.0000       0.116661         3.1745 
  53   0.0000       0.119004         3.2383 
  54   0.0000       0.121036         3.2936 
  55   0.0000       0.134430         3.6580 
  56   0.0000       0.141206         3.8424 
  57   0.0000       0.152950         4.1620 
  58   0.0000       0.159795         4.3483 
  59   0.0000       0.178774         4.8647 
  60   0.0000       0.185034         5.0350 
  61   0.0000       0.196190         5.3386 
  62   0.0000       0.205534         5.5929 
  63   0.0000       0.212695         5.7877 
  64   0.0000       0.225202         6.1281 
  65   0.0000       0.232857         6.3364 
  66   0.0000       0.236731         6.4418 
  67   0.0000       0.244535         6.6541 
  68   0.0000       0.255870         6.9626 
  69   0.0000       0.263179         7.1615 
  70   0.0000       0.269096         7.3225 
  71   0.0000       0.282391         7.6843 
  72   0.0000       0.283141         7.7047 
  73   0.0000       0.284017         7.7285 
  74   0.0000       0.306593         8.3428 
  75   0.0000       0.309492         8.4217 
  76   0.0000       0.314396         8.5552 
  77   0.0000       0.321005         8.7350 
  78   0.0000       0.326100         8.8736 
  79   0.0000       0.334788         9.1100 
  80   0.0000       0.340282         9.2595 
  81   0.0000       0.340795         9.2735 
  82   0.0000       0.353570         9.6211 
  83   0.0000       0.365232         9.9385 
  84   0.0000       0.383613        10.4387 
  85   0.0000       0.390460        10.6250 
  86   0.0000       0.400150        10.8886 
  87   0.0000       0.402153        10.9431 
  88   0.0000       0.408671        11.1205 
  89   0.0000       0.410018        11.1572 
  90   0.0000       0.420515        11.4428 
  91   0.0000       0.425973        11.5913 
  92   0.0000       0.439520        11.9600 
  93   0.0000       0.446306        12.1446 
  94   0.0000       0.454205        12.3596 
  95   0.0000       0.465141        12.6571 
  96   0.0000       0.468265        12.7421 
  97   0.0000       0.479426        13.0458 
  98   0.0000       0.492469        13.4008 
  99   0.0000       0.498027        13.5520 
 100   0.0000       0.508885        13.8475 
 101   0.0000       0.510595        13.8940 
 102   0.0000       0.524874        14.2825 
 103   0.0000       0.547765        14.9054 
 104   0.0000       0.553938        15.0734 
 105   0.0000       0.557173        15.1615 
 106   0.0000       0.568223        15.4621 
 107   0.0000       0.577075        15.7030 
 108   0.0000       0.586941        15.9715 
 109   0.0000       0.600586        16.3428 
 110   0.0000       0.609491        16.5851 
 111   0.0000       0.624032        16.9808 
 112   0.0000       0.644393        17.5348 
 113   0.0000       0.662833        18.0366 
 114   0.0000       0.674372        18.3506 
 115   0.0000       0.689112        18.7517 
 116   0.0000       0.693311        18.8659 
 117   0.0000       0.701665        19.0933 
 118   0.0000       0.720234        19.5986 
 119   0.0000       0.726143        19.7594 
 120   0.0000       0.753338        20.4994 
 121   0.0000       0.770455        20.9651 
 122   0.0000       0.771832        21.0026 
 123   0.0000       0.788165        21.4471 
 124   0.0000       0.792726        21.5712 
 125   0.0000       0.807929        21.9849 
 126   0.0000       0.824959        22.4483 
 127   0.0000       0.831622        22.6296 
 128   0.0000       0.843762        22.9599 
 129   0.0000       0.850193        23.1349 
 130   0.0000       0.868913        23.6443 
 131   0.0000       0.879892        23.9431 
 132   0.0000       0.904649        24.6168 
 133   0.0000       0.931977        25.3604 
 134   0.0000       0.953185        25.9375 
 135   0.0000       0.973103        26.4795 
 136   0.0000       0.988403        26.8958 
 137   0.0000       1.015352        27.6291 
 138   0.0000       1.021257        27.7898 
 139   0.0000       1.036771        28.2120 
 140   0.0000       1.045705        28.4551 
 141   0.0000       1.074286        29.2328 
 142   0.0000       1.083655        29.4877 
 143   0.0000       1.099460        29.9178 
 144   0.0000       1.106652        30.1135 
 145   0.0000       1.140607        31.0375 
 146   0.0000       1.141423        31.0597 
 147   0.0000       1.156138        31.4601 
 148   0.0000       1.178179        32.0599 
 149   0.0000       1.185784        32.2668 
 150   0.0000       1.196630        32.5620 
 151   0.0000       1.219649        33.1883 
 152   0.0000       1.240335        33.7512 
 153   0.0000       1.246764        33.9262 
 154   0.0000       1.258671        34.2502 
 155   0.0000       1.279047        34.8046 
 156   0.0000       1.287677        35.0395 
 157   0.0000       1.299612        35.3643 
 158   0.0000       1.303169        35.4610 
 159   0.0000       1.315644        35.8005 
 160   0.0000       1.330366        36.2011 
 161   0.0000       1.359752        37.0007 
 162   0.0000       1.365721        37.1632 
 163   0.0000       1.384135        37.6642 
 164   0.0000       1.412018        38.4230 
 165   0.0000       1.421737        38.6874 
 166   0.0000       1.447075        39.3769 
 167   0.0000       1.460464        39.7412 
 168   0.0000       1.475864        40.1603 
 169   0.0000       1.502562        40.8868 
 170   0.0000       1.506201        40.9858 
 171   0.0000       1.522043        41.4169 
 172   0.0000       1.539830        41.9009 
 173   0.0000       1.559453        42.4349 
 174   0.0000       1.569661        42.7127 
 175   0.0000       1.588707        43.2309 
 176   0.0000       1.601580        43.5812 
 177   0.0000       1.609732        43.8030 
 178   0.0000       1.619063        44.0569 
 179   0.0000       1.631975        44.4083 
 180   0.0000       1.638868        44.5959 
 181   0.0000       1.651542        44.9407 
 182   0.0000       1.669647        45.4334 
 183   0.0000       1.675165        45.5835 
 184   0.0000       1.697580        46.1935 
 185   0.0000       1.709752        46.5247 
 186   0.0000       1.738772        47.3144 
 187   0.0000       1.743484        47.4426 
 188   0.0000       1.774107        48.2759 
 189   0.0000       1.788845        48.6769 
 190   0.0000       1.791176        48.7404 
 191   0.0000       1.803212        49.0679 
 192   0.0000       1.816391        49.4265 
 193   0.0000       1.838076        50.0166 
 194   0.0000       1.844949        50.2036 
 195   0.0000       1.860982        50.6399 
 196   0.0000       1.880211        51.1631 
 197   0.0000       1.901565        51.7442 
 198   0.0000       1.922818        52.3225 
 199   0.0000       1.931452        52.5575 
 200   0.0000       1.945483        52.9393 
 201   0.0000       1.956094        53.2280 
 202   0.0000       1.969022        53.5798 
 203   0.0000       1.981649        53.9234 
 204   0.0000       1.995912        54.3115 
 205   0.0000       2.022186        55.0265 
 206   0.0000       2.032228        55.2997 
 207   0.0000       2.054593        55.9083 
 208   0.0000       2.061349        56.0922 
 209   0.0000       2.080795        56.6213 
 210   0.0000       2.089188        56.8497 
 211   0.0000       2.102273        57.2058 
 212   0.0000       2.106905        57.3318 
 213   0.0000       2.111352        57.4528 
 214   0.0000       2.147094        58.4254 
 215   0.0000       2.175791        59.2063 
 216   0.0000       2.186596        59.5003 
 217   0.0000       2.209933        60.1353 
 218   0.0000       2.216685        60.3191 
 219   0.0000       2.235132        60.8210 
 220   0.0000       2.247214        61.1498 
 221   0.0000       2.275663        61.9239 
 222   0.0000       2.325268        63.2738 
 223   0.0000       2.331428        63.4414 
 224   0.0000       2.351735        63.9940 
 225   0.0000       2.373998        64.5998 
 226   0.0000       2.383715        64.8642 
 227   0.0000       2.386214        64.9322 
 228   0.0000       2.411338        65.6158 
 229   0.0000       2.416021        65.7433 
 230   0.0000       2.430743        66.1439 
 231   0.0000       2.450362        66.6777 
 232   0.0000       2.465772        67.0971 
 233   0.0000       2.473796        67.3154 
 234   0.0000       2.518501        68.5319 
 235   0.0000       2.540331        69.1259 
 236   0.0000       2.540583        69.1328 
 237   0.0000       2.560897        69.6855 
 238   0.0000       2.577185        70.1288 
 239   0.0000       2.583147        70.2910 
 240   0.0000       2.588716        70.4425 
 241   0.0000       2.596005        70.6409 
 242   0.0000       2.612554        71.0912 
 243   0.0000       2.623142        71.3793 
 244   0.0000       2.656008        72.2737 
 245   0.0000       2.663566        72.4793 
 246   0.0000       2.667366        72.5827 
 247   0.0000       2.680890        72.9507 
 248   0.0000       2.703373        73.5625 
 249   0.0000       2.708470        73.7012 
 250   0.0000       2.733739        74.3888 
 251   0.0000       2.739920        74.5570 
 252   0.0000       2.753362        74.9228 
 253   0.0000       2.773422        75.4686 
 254   0.0000       2.785087        75.7861 
 255   0.0000       2.787601        75.8545 
 256   0.0000       2.797106        76.1131 
 257   0.0000       2.810673        76.4823 
 258   0.0000       2.828173        76.9585 
 259   0.0000       2.843066        77.3638 
 260   0.0000       2.856701        77.7348 
 261   0.0000       2.868356        78.0519 
 262   0.0000       2.892504        78.7090 
 263   0.0000       2.910214        79.1909 
 264   0.0000       2.916494        79.3618 
 265   0.0000       2.945990        80.1645 
 266   0.0000       2.953169        80.3598 
 267   0.0000       2.972664        80.8903 
 268   0.0000       2.983973        81.1980 
 269   0.0000       2.994776        81.4920 
 270   0.0000       2.999671        81.6252 
 271   0.0000       3.014084        82.0174 
 272   0.0000       3.024082        82.2895 
 273   0.0000       3.051626        83.0390 
 274   0.0000       3.078275        83.7641 
 275   0.0000       3.085898        83.9716 
 276   0.0000       3.099808        84.3501 
 277   0.0000       3.118026        84.8458 
 278   0.0000       3.124955        85.0343 
 279   0.0000       3.131188        85.2040 
 280   0.0000       3.134482        85.2936 
 281   0.0000       3.158615        85.9503 
 282   0.0000       3.170130        86.2636 
 283   0.0000       3.178865        86.5013 
 284   0.0000       3.202344        87.1402 
 285   0.0000       3.212765        87.4238 
 286   0.0000       3.220082        87.6229 
 287   0.0000       3.246872        88.3519 
 288   0.0000       3.265515        88.8592 
 289   0.0000       3.267652        88.9173 
 290   0.0000       3.279195        89.2314 
 291   0.0000       3.285707        89.4086 
 292   0.0000       3.312334        90.1332 
 293   0.0000       3.316881        90.2569 
 294   0.0000       3.331914        90.6660 
 295   0.0000       3.340897        90.9104 
 296   0.0000       3.354791        91.2885 
 297   0.0000       3.363651        91.5296 
 298   0.0000       3.382984        92.0557 
 299   0.0000       3.404488        92.6408 
 300   0.0000       3.411639        92.8354 
 301   0.0000       3.430736        93.3551 
 302   0.0000       3.444657        93.7339 
 303   0.0000       3.448067        93.8267 
 304   0.0000       3.478131        94.6447 
 305   0.0000       3.482923        94.7752 
 306   0.0000       3.523116        95.8689 
 307   0.0000       3.555474        96.7494 
 308   0.0000       3.585523        97.5670 
 309   0.0000       3.622297        98.5677 
 310   0.0000       3.632115        98.8349 
 311   0.0000       3.653169        99.4078 
 312   0.0000       3.697696       100.6194 
 313   0.0000       3.702210       100.7423 
 314   0.0000       3.752848       102.1202 
 315   0.0000       3.768325       102.5413 
 316   0.0000       3.787824       103.0719 
 317   0.0000       3.816820       103.8610 
 318   0.0000       3.822833       104.0246 
 319   0.0000       3.852805       104.8401 
 320   0.0000       3.862682       105.1089 
 321   0.0000       3.873275       105.3972 
 322   0.0000       3.909436       106.3811 
 323   0.0000       3.916968       106.5861 
 324   0.0000       3.946667       107.3943 
 325   0.0000       3.960040       107.7582 
 326   0.0000       4.029457       109.6471 
 327   0.0000       4.031291       109.6970 
 328   0.0000       4.049493       110.1923 
 329   0.0000       4.086640       111.2031 
 330   0.0000       4.096611       111.4745 
 331   0.0000       4.113456       111.9328 
 332   0.0000       4.124568       112.2352 
 333   0.0000       4.136962       112.5725 
 334   0.0000       4.153383       113.0193 
 335   0.0000       4.195549       114.1667 
 336   0.0000       4.209304       114.5410 
 337   0.0000       4.236803       115.2893 
 338   0.0000       4.242367       115.4407 
 339   0.0000       4.270617       116.2094 
 340   0.0000       4.329530       117.8125 
 341   0.0000       4.343239       118.1855 
 342   0.0000       4.362033       118.6969 
 343   0.0000       4.372600       118.9845 
 344   0.0000       4.428214       120.4978 
 345   0.0000       4.466452       121.5383 
 346   0.0000       4.507732       122.6616 
 347   0.0000       4.544265       123.6557 
 348   0.0000       4.569562       124.3441 
 349   0.0000       4.602814       125.2489 
 350   0.0000       4.640116       126.2640 
 351   0.0000       4.684480       127.4712 
 352   0.0000       4.729454       128.6950 
 353   0.0000       4.767867       129.7402 
 354   0.0000       4.777155       129.9930 
 355   0.0000       4.783941       130.1777 
 356   0.0000       4.804221       130.7295 
 357   0.0000       4.832126       131.4888 
 358   0.0000       4.879420       132.7758 
 359   0.0000       4.910920       133.6329 
 360   0.0000       4.970374       135.2507 
 361   0.0000       4.995755       135.9414 
 362   0.0000       5.021355       136.6380 
 363   0.0000       5.031432       136.9122 
 364   0.0000       5.111983       139.1041 
 365   0.0000       5.127169       139.5174 
 366   0.0000       5.175033       140.8198 
 367   0.0000       5.179039       140.9288 
 368   0.0000       5.215664       141.9254 
 369   0.0000       5.252664       142.9323 
 370   0.0000       5.297562       144.1540 
 371   0.0000       5.340112       145.3118 
 372   0.0000       5.385915       146.5582 
 373   0.0000       5.388385       146.6254 
 374   0.0000       5.413473       147.3081 
 375   0.0000       5.479200       149.0966 
 376   0.0000       5.528298       150.4326 
 377   0.0000       5.551394       151.0611 
 378   0.0000       5.677798       154.5007 
 379   0.0000       5.757299       156.6641 
 380   0.0000       5.767798       156.9498 
 381   0.0000       5.873735       159.8325 
 382   0.0000       6.078853       165.4140 
 383   0.0000       6.154552       167.4739 
 384   0.0000       6.255876       170.2310 
 385   0.0000       6.266257       170.5135 
 386   0.0000       6.303778       171.5345 
 387   0.0000       6.431074       174.9984 
 388   0.0000       6.525847       177.5773 
 389   0.0000       6.627298       180.3380 
 390   0.0000       6.669428       181.4844 
 391   0.0000       6.699842       182.3120 
 392   0.0000       6.859732       186.6628 
 393   0.0000       6.873126       187.0273 
 394   0.0000       7.096473       193.1048 
 395   0.0000       7.220694       196.4851 
 396   0.0000      21.899894       595.9264 
 397   0.0000      22.172366       603.3408 
 398   0.0000      22.288970       606.5137 
 399   0.0000      22.440719       610.6430 
 400   0.0000      22.498014       612.2021 
 401   0.0000      22.617050       615.4412 
 402   0.0000      22.722031       618.2979 
 403   0.0000      23.147176       629.8667 
 404   0.0000      31.629905       860.6935 
 405   0.0000      43.445049      1182.1999 
 406   0.0000      43.672563      1188.3909 

                    ********************************
                    * MULLIKEN POPULATION ANALYSIS *
                    ********************************

-----------------------
MULLIKEN ATOMIC CHARGES
-----------------------
   0 C :   -0.327432
   1 C :   -0.218142
   2 C :    0.144475
   3 C :    0.176436
   4 C :   -0.289951
   5 C :    0.196859
   6 O :   -0.428755
   7 O :   -0.387981
   8 C :   -0.208889
   9 C :   -0.119766
  10 N :   -0.550771
  11 H :    0.116977
  12 H :    0.145047
  13 H :    0.121946
  14 H :    0.361285
  15 H :    0.345456
  16 H :    0.125636
  17 H :    0.099001
  18 H :    0.118468
  19 H :    0.112476
  20 H :    0.234711
  21 H :    0.232915
Sum of atomic charges:    0.0000000

--------------------------------
MULLIKEN REDUCED ORBITAL CHARGES
--------------------------------
  0 C s       :     3.347105  s :     3.347105
      pz      :     1.030718  p :     2.896557
      px      :     0.955041
      py      :     0.910798
      dz2     :     0.007072  d :     0.076781
      dxz     :     0.018892
      dyz     :     0.006991
      dx2y2   :     0.024087
      dxy     :     0.019739
      f0      :     0.001065  f :     0.006988
      f+1     :     0.001022
      f-1     :     0.000654
      f+2     :     0.000656
      f-2     :     0.000800
      f+3     :     0.000980
      f-3     :     0.001811
  1 C s       :     3.238083  s :     3.238083
      pz      :     1.025761  p :     2.893255
      px      :     0.925278
      py      :     0.942216
      dz2     :     0.009151  d :     0.079928
      dxz     :     0.018327
      dyz     :     0.009188
      dx2y2   :     0.017185
      dxy     :     0.026077
      f0      :     0.001069  f :     0.006875
      f+1     :     0.000955
      f-1     :     0.000678
      f+2     :     0.000670
      f-2     :     0.000789
      f+3     :     0.001013
      f-3     :     0.001701
  2 C s       :     3.054345  s :     3.054345
      pz      :     0.977157  p :     2.622909
      px      :     0.834378
      py      :     0.811374
      dz2     :     0.011560  d :     0.163129
      dxz     :     0.032499
      dyz     :     0.033439
      dx2y2   :     0.050860
      dxy     :     0.034771
      f0      :     0.001907  f :     0.015142
      f+1     :     0.001375
      f-1     :     0.001208
      f+2     :     0.001294
      f-2     :     0.002407
      f+3     :     0.002647
      f-3     :     0.004304
  3 C s       :     3.155322  s :     3.155322
      pz      :     0.921312  p :     2.524780
      px      :     0.805447
      py      :     0.798021
      dz2     :     0.009521  d :     0.134052
      dxz     :     0.021617
      dyz     :     0.026767
      dx2y2   :     0.039521
      dxy     :     0.036627
      f0      :     0.001263  f :     0.009410
      f+1     :     0.000926
      f-1     :     0.000592
      f+2     :     0.000986
      f-2     :     0.001300
      f+3     :     0.001439
      f-3     :     0.002904
  4 C s       :     3.276874  s :     3.276874
      pz      :     1.022986  p :     2.917230
      px      :     0.955691
      py      :     0.938553
      dz2     :     0.006111  d :     0.088995
      dxz     :     0.016146
      dyz     :     0.012544
      dx2y2   :     0.018459
      dxy     :     0.035735
      f0      :     0.001100  f :     0.006852
      f+1     :     0.000963
      f-1     :     0.000485
      f+2     :     0.000970
      f-2     :     0.000474
      f+3     :     0.001080
      f-3     :     0.001779
  5 C s       :     3.095938  s :     3.095938
      pz      :     0.982815  p :     2.530253
      px      :     0.713233
      py      :     0.834205
      dz2     :     0.014400  d :     0.162231
      dxz     :     0.037441
      dyz     :     0.025338
      dx2y2   :     0.035444
      dxy     :     0.049607
      f0      :     0.001843  f :     0.014720
      f+1     :     0.001930
      f-1     :     0.000634
      f+2     :     0.002356
      f-2     :     0.001311
      f+3     :     0.002469
      f-3     :     0.004176
  6 O s       :     3.767924  s :     3.767924
      pz      :     1.792607  p :     4.629186
      px      :     1.395446
      py      :     1.441134
      dz2     :     0.004291  d :     0.030004
      dxz     :     0.006461
      dyz     :     0.001193
      dx2y2   :     0.012788
      dxy     :     0.005271
      f0      :     0.000225  f :     0.001641
      f+1     :     0.000298
      f-1     :     0.000309
      f+2     :     0.000159
      f-2     :     0.000072
      f+3     :     0.000208
      f-3     :     0.000372
  7 O s       :     3.756510  s :     3.756510
      pz      :     1.773028  p :     4.598175
      px      :     1.311072
      py      :     1.514076
      dz2     :     0.004055  d :     0.031737
      dxz     :     0.002628
      dyz     :     0.005845
      dx2y2   :     0.008340
      dxy     :     0.010869
      f0      :     0.000277  f :     0.001559
      f+1     :     0.000286
      f-1     :     0.000205
      f+2     :     0.000085
      f-2     :     0.000197
      f+3     :     0.000126
      f-3     :     0.000383
  8 C s       :     3.181189  s :     3.181189
      pz      :     0.987210  p :     2.934062
      px      :     0.898233
      py      :     1.048620
      dz2     :     0.014643  d :     0.088384
      dxz     :     0.020036
      dyz     :     0.017462
      dx2y2   :     0.018347
[...]
      f+3     :     0.000368
      f-3     :     0.000185
  7 O s       :     3.767783  s :     3.767783
      pz      :     1.784939  p :     4.630083
      px      :     1.576592
      py      :     1.268552
      dz2     :     0.003295  d :     0.029710
      dxz     :     0.004298
      dyz     :     0.004413
      dx2y2   :     0.005443
      dxy     :     0.012261
      f0      :     0.000294  f :     0.001623
      f+1     :     0.000146
      f-1     :     0.000285
      f+2     :     0.000065
      f-2     :     0.000257
      f+3     :     0.000409
      f-3     :     0.000168
  8 C s       :     3.165363  s :     3.165363
      pz      :     0.972865  p :     2.891400
      px      :     0.890210
      py      :     1.028324
      dz2     :     0.013569  d :     0.089141
      dxz     :     0.020955
      dyz     :     0.020179
      dx2y2   :     0.019246
      dxy     :     0.015193
      f0      :     0.000779  f :     0.005341
      f+1     :     0.000965
      f-1     :     0.000306
      f+2     :     0.001417
      f-2     :     0.000624
      f+3     :     0.000417
      f-3     :     0.000833
  9 C s       :     3.221567  s :     3.221567
      pz      :     0.912438  p :     2.807116
      px      :     1.019116
      py      :     0.875563
      dz2     :     0.026340  d :     0.109355
      dxz     :     0.012907
      dyz     :     0.027918
      dx2y2   :     0.030282
      dxy     :     0.011908
      f0      :     0.000962  f :     0.007563
      f+1     :     0.000449
      f-1     :     0.001703
      f+2     :     0.001747
      f-2     :     0.001226
      f+3     :     0.000792
      f-3     :     0.000683
 10 N s       :     3.553562  s :     3.553562
      pz      :     1.295984  p :     3.964556
      px      :     1.174646
      py      :     1.493926
      dz2     :     0.007964  d :     0.039663
      dxz     :     0.010565
      dyz     :     0.005505
      dx2y2   :     0.010242
      dxy     :     0.005387
      f0      :     0.000111  f :     0.002097
      f+1     :     0.000186
      f-1     :     0.000352
      f+2     :     0.000688
      f-2     :     0.000206
      f+3     :     0.000446
      f-3     :     0.000109
 11 H s       :     0.849070  s :     0.849070
      pz      :     0.005767  p :     0.021852
      px      :     0.005313
      py      :     0.010772
 12 H s       :     0.856262  s :     0.856262
      pz      :     0.005695  p :     0.021703
      px      :     0.005348
      py      :     0.010660
 13 H s       :     0.856569  s :     0.856569
      pz      :     0.005001  p :     0.021732
      px      :     0.006542
      py      :     0.010189
 14 H s       :     0.604710  s :     0.604710
      pz      :     0.014432  p :     0.045660
      px      :     0.011527
      py      :     0.019701
 15 H s       :     0.593888  s :     0.593888
      pz      :     0.015052  p :     0.044664
      px      :     0.012479
      py      :     0.017133
 16 H s       :     0.862670  s :     0.862670
      pz      :     0.007084  p :     0.021043
      px      :     0.004888
      py      :     0.009071
 17 H s       :     0.880910  s :     0.880910
      pz      :     0.007274  p :     0.021148
      px      :     0.004612
      py      :     0.009262
 18 H s       :     0.869189  s :     0.869189
      pz      :     0.004973  p :     0.020547
      px      :     0.011765
      py      :     0.003809
 19 H s       :     0.874217  s :     0.874217
      pz      :     0.006286  p :     0.020302
      px      :     0.004364
      py      :     0.009653
 20 H s       :     0.725819  s :     0.725819
      pz      :     0.009635  p :     0.035590
      px      :     0.016527
      py      :     0.009428
 21 H s       :     0.726495  s :     0.726495
      pz      :     0.014766  p :     0.035038
      px      :     0.010817
      py      :     0.009455


                     *******************************
                     * LOEWDIN POPULATION ANALYSIS *
                     *******************************

----------------------
LOEWDIN ATOMIC CHARGES
----------------------
   0 C :   -0.123747
   1 C :   -0.139821
   2 C :   -0.276711
   3 C :   -0.171091
   4 C :   -0.140268
   5 C :   -0.277726
   6 O :    0.074739
   7 O :    0.071579
   8 C :   -0.233542
   9 C :   -0.339498
  10 N :   -0.198554
  11 H :    0.158557
  12 H :    0.154986
  13 H :    0.153562
  14 H :    0.205011
  15 H :    0.214480
  16 H :    0.152605
  17 H :    0.146519
  18 H :    0.131679
  19 H :    0.119761
  20 H :    0.158300
  21 H :    0.159179

-------------------------------
LOEWDIN REDUCED ORBITAL CHARGES
-------------------------------
  0 C s       :     2.763161  s :     2.763161
      pz      :     0.944972  p :     2.950998
      px      :     1.010231
      py      :     0.995795
      dz2     :     0.029050  d :     0.368292
      dxz     :     0.067552
      dyz     :     0.038952
      dx2y2   :     0.123987
      dxy     :     0.108751
      f0      :     0.003640  f :     0.041296
      f+1     :     0.005114
      f-1     :     0.002459
      f+2     :     0.005530
      f-2     :     0.005022
      f+3     :     0.007252
      f-3     :     0.012279
  1 C s       :     2.767737  s :     2.767737
      pz      :     0.934959  p :     2.961436
      px      :     1.036277
      py      :     0.990200
      dz2     :     0.028156  d :     0.368775
      dxz     :     0.067384
      dyz     :     0.041287
      dx2y2   :     0.103503
      dxy     :     0.128445
      f0      :     0.003662  f :     0.041873
      f+1     :     0.004980
      f-1     :     0.002625
      f+2     :     0.005385
      f-2     :     0.005375
      f+3     :     0.007470
      f-3     :     0.012376
  2 C s       :     2.721039  s :     2.721039
      pz      :     0.923196  p :     2.799813
      px      :     0.989505
      py      :     0.887112
      dz2     :     0.061127  d :     0.664054
      dxz     :     0.100253
      dyz     :     0.117043
      dx2y2   :     0.173339
      dxy     :     0.212292
      f0      :     0.007450  f :     0.091805
      f+1     :     0.007022
      f-1     :     0.007945
      f+2     :     0.007693
      f-2     :     0.016728
      f+3     :     0.015550
      f-3     :     0.029418
  3 C s       :     2.715163  s :     2.715163
      pz      :     0.869362  p :     2.876563
      px      :     0.968000
      py      :     1.039201
      dz2     :     0.042798  d :     0.522747
      dxz     :     0.075703
      dyz     :     0.089167
      dx2y2   :     0.164445
      dxy     :     0.150634
      f0      :     0.004104  f :     0.056618
      f+1     :     0.004358
      f-1     :     0.004952
      f+2     :     0.006074
      f-2     :     0.009063
      f+3     :     0.008867
      f-3     :     0.019200
  4 C s       :     2.763193  s :     2.763193
      pz      :     0.935288  p :     2.951637
      px      :     1.018024
      py      :     0.998325
      dz2     :     0.041370  d :     0.383733
      dxz     :     0.063202
      dyz     :     0.036721
      dx2y2   :     0.102265
      dxy     :     0.140176
      f0      :     0.002988  f :     0.041704
      f+1     :     0.004186
      f-1     :     0.003920
      f+2     :     0.006768
      f-2     :     0.004156
      f+3     :     0.007348
      f-3     :     0.012339
  5 C s       :     2.720046  s :     2.720046
      pz      :     0.902384  p :     2.804105
      px      :     0.843824
      py      :     1.057897
      dz2     :     0.065494  d :     0.662047
      dxz     :     0.135852
      dyz     :     0.082537
      dx2y2   :     0.194245
      dxy     :     0.183919
      f0      :     0.006715  f :     0.091529
      f+1     :     0.011366
      f-1     :     0.005139
      f+2     :     0.015532
      f-2     :     0.009937
      f+3     :     0.015012
      f-3     :     0.027827
  6 O s       :     3.335928  s :     3.335928
      pz      :     1.682701  p :     4.514764
      px      :     1.379168
      py      :     1.452894
      dz2     :     0.009261  d :     0.069831
      dxz     :     0.015736
      dyz     :     0.001727
      dx2y2   :     0.021597
      dxy     :     0.021510
      f0      :     0.000343  f :     0.004738
      f+1     :     0.000796
      f-1     :     0.000360
      f+2     :     0.000727
      f-2     :     0.000247
      f+3     :     0.001153
      f-3     :     0.001111
  7 O s       :     3.331372  s :     3.331372
      pz      :     1.683705  p :     4.522926
      px      :     1.568174
      py      :     1.271047
      dz2     :     0.006456  d :     0.069402
      dxz     :     0.006886
      dyz     :     0.012421
      dx2y2   :     0.017372
      dxy     :     0.026267
      f0      :     0.000551  f :     0.004721
      f+1     :     0.000236
      f-1     :     0.000528
      f+2     :     0.000107
      f-2     :     0.000963
      f+3     :     0.001331
      f-3     :     0.001007
  8 C s       :     2.777512  s :     2.777512
      pz      :     1.019754  p :     3.039839
      px      :     0.994194
      py      :     1.025891
      dz2     :     0.051740  d :     0.378788
      dxz     :     0.095083
      dyz     :     0.089577
      dx2y2   :     0.086805
      dxy     :     0.055582
      f0      :     0.006961  f :     0.037403
      f+1     :     0.007186
      f-1     :     0.001986
      f+2     :     0.005911
      f-2     :     0.004607
      f+3     :     0.004065
      f-3     :     0.006687
  9 C s       :     2.805513  s :     2.805513
      pz      :     1.005103  p :     3.000639
      px      :     1.032383
      py      :     0.963153
      dz2     :     0.099974  d :     0.481932
      dxz     :     0.070034
      dyz     :     0.126302
      dx2y2   :     0.142981
      dxy     :     0.042641
      f0      :     0.008783  f :     0.051415
      f+1     :     0.004690
      f-1     :     0.010487
      f+2     :     0.006867
      f-2     :     0.008399
      f+3     :     0.006456
      f-3     :     0.005733
 10 N s       :     3.104143  s :     3.104143
      pz      :     1.284890  p :     3.948897
      px      :     1.179297
      py      :     1.484711
      dz2     :     0.025029  d :     0.135662
      dxz     :     0.037171
      dyz     :     0.021443
      dx2y2   :     0.035855
      dxy     :     0.016164
      f0      :     0.001041  f :     0.009852
      f+1     :     0.001336
      f-1     :     0.001646
      f+2     :     0.001663
      f-2     :     0.001067
      f+3     :     0.002171
      f-3     :     0.000927
 11 H s       :     0.781475  s :     0.781475
      pz      :     0.016073  p :     0.059967
      px      :     0.014749
      py      :     0.029145
 12 H s       :     0.785405  s :     0.785405
      pz      :     0.015681  p :     0.059609
      px      :     0.015060
      py      :     0.028868
 13 H s       :     0.787173  s :     0.787173
      pz      :     0.013866  p :     0.059265
      px      :     0.017976
      py      :     0.027424
 14 H s       :     0.644796  s :     0.644796
      pz      :     0.039283  p :     0.150192
      px      :     0.030428
      py      :     0.080482
 15 H s       :     0.637317  s :     0.637317
      pz      :     0.043604  p :     0.148203
      px      :     0.047717
      py      :     0.056882
 16 H s       :     0.789119  s :     0.789119
      pz      :     0.018385  p :     0.058276
      px      :     0.013186
      py      :     0.026704
 17 H s       :     0.795180  s :     0.795180
      pz      :     0.018880  p :     0.058301
      px      :     0.012273
      py      :     0.027149
 18 H s       :     0.810387  s :     0.810387
      pz      :     0.014795  p :     0.057933
      px      :     0.032260
      py      :     0.010878
 19 H s       :     0.821502  s :     0.821502
      pz      :     0.017809  p :     0.058737
      px      :     0.012970
      py      :     0.027958
 20 H s       :     0.732461  s :     0.732461
      pz      :     0.027486  p :     0.109239
      px      :     0.052524
      py      :     0.029229
 21 H s       :     0.732828  s :     0.732828
      pz      :     0.046421  p :     0.107993
      px      :     0.032423
      py      :     0.029148


                      *****************************
                      * MAYER POPULATION ANALYSIS *
                      *****************************

  NA   - Mulliken gross atomic population
  ZA   - Total nuclear charge
  QA   - Mulliken gross atomic charge
  VA   - Mayer's total valence
  BVA  - Mayer's bonded valence
  FA   - Mayer's free valence

  ATOM       NA         ZA         QA         VA         BVA        FA
  0 C      6.3327     6.0000    -0.3327     3.8646     3.8646     0.0000
  1 C      6.2296     6.0000    -0.2296     3.9471     3.9471     0.0000
  2 C      5.7675     6.0000     0.2325     3.7549     3.7549    -0.0000
  3 C      5.8550     6.0000     0.1450     3.6936     3.6936     0.0000
  4 C      6.2446     6.0000    -0.2446     3.9168     3.9168     0.0000
  5 C      5.8819     6.0000     0.1181     4.0562     4.0562     0.0000
  6 O      8.3936     8.0000    -0.3936     2.1239     2.1239    -0.0000
  7 O      8.4292     8.0000    -0.4292     2.0862     2.0862    -0.0000
  8 C      6.1512     6.0000    -0.1512     3.7996     3.7996     0.0000
  9 C      6.1456     6.0000    -0.1456     4.0003     4.0003     0.0000
 10 N      7.5599     7.0000    -0.5599     2.9070     2.9070     0.0000
 11 H      0.8709     1.0000     0.1291     0.9927     0.9927    -0.0000
 12 H      0.8780     1.0000     0.1220     0.9822     0.9822    -0.0000
 13 H      0.8783     1.0000     0.1217     0.9719     0.9719     0.0000
 14 H      0.6504     1.0000     0.3496     0.9007     0.9007    -0.0000
 15 H      0.6386     1.0000     0.3614     0.8868     0.8868    -0.0000
 16 H      0.8837     1.0000     0.1163     0.9717     0.9717    -0.0000
 17 H      0.9021     1.0000     0.0979     0.9944     0.9944    -0.0000
 18 H      0.8897     1.0000     0.1103     0.9664     0.9664     0.0000
 19 H      0.8945     1.0000     0.1055     0.9646     0.9646    -0.0000
 20 H      0.7614     1.0000     0.2386     0.9395     0.9395     0.0000
 21 H      0.7615     1.0000     0.2385     0.9379     0.9379     0.0000

  Mayer bond orders larger than 0.100000
B(  0-C ,  2-C ) :   1.3276 B(  0-C ,  3-C ) :   1.3287 B(  0-C , 11-H ) :   0.9524 
B(  1-C ,  4-C ) :   1.4088 B(  1-C ,  5-C ) :   1.4002 B(  1-C , 12-H ) :   0.9839 
B(  2-C ,  5-C ) :   1.2584 B(  2-C ,  7-O ) :   1.0893 B(  3-C ,  4-C ) :   1.3320 
B(  3-C ,  8-C ) :   0.9225 B(  4-C , 13-H ) :   0.9856 B(  5-C ,  6-O ) :   1.2058 
B(  6-O , 14-H ) :   0.8471 B(  7-O , 15-H ) :   0.8512 B(  8-C ,  9-C ) :   0.9910 
B(  8-C , 16-H ) :   0.9421 B(  8-C , 17-H ) :   0.9504 B(  9-C , 10-N ) :   1.0579 
B(  9-C , 18-H ) :   0.9423 B(  9-C , 19-H ) :   0.9648 B( 10-N , 20-H ) :   0.9159 
B( 10-N , 21-H ) :   0.9217 

-------
TIMINGS
-------

Total SCF time: 0 days 0 hours 0 min 9 sec 

Total time                  ....       9.518 sec
Sum of individual times     ....       8.696 sec  ( 91.4%)

Fock matrix formation       ....       7.536 sec  ( 79.2%)
  Split-RI-J                ....       1.700 sec  ( 22.6% of F)
  XC integration            ....       2.550 sec  ( 33.8% of F)
    Basis function eval.    ....       0.447 sec  ( 17.5% of XC)
    Density eval.           ....       0.633 sec  ( 24.8% of XC)
    XC-Functional eval.     ....       0.042 sec  (  1.6% of XC)
    XC-Potential eval.      ....       0.451 sec  ( 17.7% of XC)
Diagonalization             ....       0.063 sec  (  0.7%)
Density matrix formation    ....       0.023 sec  (  0.2%)
Population analysis         ....       0.051 sec  (  0.5%)
Initial guess               ....       0.085 sec  (  0.9%)
Orbital Transformation      ....       0.000 sec  (  0.0%)
Orbital Orthonormalization  ....       0.068 sec  (  0.7%)
DIIS solution               ....       0.023 sec  (  0.2%)
SOSCF solution              ....       0.333 sec  (  3.5%)
Grid generation             ....       0.583 sec  (  6.1%)

Maximum memory used throughout the entire SCF-calculation: 54.4 MB


-------------------------------------------------------------------------------
                          DFT DISPERSION CORRECTION                            
                                                                               
                              DFTD3 V3.1  Rev 1                                
                          USING Becke-Johnson damping                          
-------------------------------------------------------------------------------
The PBE functional is recognized
Active option DFTDOPT                   ...         4   

molecular C6(AA) [au] = 4644.836099 


            DFT-D V3
 parameters
 s6 scaling factor         :     1.0000 
 a1 scaling factor         :     0.4289 
 s8 scaling factor         :     0.7875 
 a2 scaling factor         :     4.4407 
 ad hoc parameters k1-k3   :    16.0000     1.3333    -4.0000 

 Edisp/kcal,au: -14.462653266098  -0.023047702578 
 E6   /kcal   : -10.237932370 
 E8   /kcal   :  -4.224720896 
 % E8         :  29.211243736 

-------------------------   ----------------
Dispersion correction           -0.023047703
-------------------------   ----------------


-------------------------   --------------------
FINAL SINGLE POINT ENERGY      -516.285038755180
-------------------------   --------------------

                                *** OPTIMIZATION RUN DONE ***

                            ***************************************
                            *     ORCA property calculations      *
                            ***************************************

                                    ---------------------
                                    Active property flags
                                    ---------------------
   (+) Dipole Moment


------------------------------------------------------------------------------
                       ORCA ELECTRIC PROPERTIES CALCULATION
------------------------------------------------------------------------------

Dipole Moment Calculation                       ... on
Quadrupole Moment Calculation                   ... off
Polarizability Calculation                      ... off
GBWName                                         ... 5_M00009.gbw
Electron density                                ... 5_M00009.scfp
The origin for moment calculation is the CENTER OF MASS  = (-0.134386, -0.006572 -0.001885)

-------------
DIPOLE MOMENT
-------------
                                X             Y             Z
Electronic contribution:    -11.43314      -0.86342      -0.29646
Nuclear contribution   :     11.86696       0.17619       0.37490
                        -----------------------------------------
Total Dipole Moment    :      0.43382      -0.68724       0.07843
                        -----------------------------------------
Magnitude (a.u.)       :      0.81648
Magnitude (Debye)      :      2.07533



--------------------
Rotational spectrum 
--------------------
 
Rotational constants in cm-1:     0.070710     0.021982     0.018868 
Rotational constants in MHz :  2119.842250   659.003388   565.655727 

 Dipole components along the rotational axes: 
x,y,z [a.u.] :     0.428222     0.690560     0.079971 
x,y,z [Debye]:     1.088455     1.755265     0.203270 

 
No protocol specified

Timings for individual modules:

Sum of individual times         ...      126.237 sec (=   2.104 min)
GTO integral calculation        ...        7.156 sec (=   0.119 min)   5.7 %
SCF iterations                  ...       90.822 sec (=   1.514 min)  71.9 %
SCF Gradient evaluation         ...       28.019 sec (=   0.467 min)  22.2 %
Geometry relaxation             ...        0.240 sec (=   0.004 min)   0.2 %



                             ****ORCA TERMINATED NORMALLY****
TOTAL RUN TIME: 0 days 0 hours 15 minutes 48 seconds 785 msec
