
                                 *****************
                                 * O   R   C   A *
                                 *****************

                                            #,                                       
                                            ###                                      
                                            ####                                     
                                            #####                                    
                                            ######                                   
                                           ########,                                 
                                     ,,################,,,,,                         
                               ,,#################################,,                 
                          ,,##########################################,,             
                       ,#########################################, ''#####,          
                    ,#############################################,,   '####,        
                  ,##################################################,,,,####,       
                ,###########''''           ''''###############################       
              ,#####''   ,,,,##########,,,,          '''####'''          '####       
            ,##' ,,,,###########################,,,                        '##       
           ' ,,###''''                  '''############,,,                           
         ,,##''                                '''############,,,,        ,,,,,,###''
      ,#''                                            '''#######################'''  
     '                                                          ''''####''''         
             ,#######,   #######,   ,#######,      ##                                
            ,#'     '#,  ##    ##  ,#'     '#,    #''#        ######   ,####,        
            ##       ##  ##   ,#'  ##            #'  '#       #        #'  '#        
            ##       ##  #######   ##           ,######,      #####,   #    #        
            '#,     ,#'  ##    ##  '#,     ,#' ,#      #,         ##   #,  ,#        
             '#######'   ##     ##  '#######'  #'      '#     #####' # '####'        



                  #######################################################
                  #                        -***-                        #
                  #          Department of theory and spectroscopy      #
                  #    Directorship and core code : Frank Neese         #
                  #        Max Planck Institute fuer Kohlenforschung    #
                  #                Kaiser Wilhelm Platz 1               #
                  #                 D-45470 Muelheim/Ruhr               #
                  #                      Germany                        #
                  #                                                     #
                  #                  All rights reserved                #
                  #                        -***-                        #
                  #######################################################


                         Program Version 5.0.2 -  RELEASE  -


 With contributions from (in alphabetic order):
   Daniel Aravena         : Magnetic Suceptibility
   Michael Atanasov       : Ab Initio Ligand Field Theory (pilot matlab implementation)
   Alexander A. Auer      : GIAO ZORA, VPT2 properties, NMR spectrum
   Ute Becker             : Parallelization
   Giovanni Bistoni       : ED, misc. LED, open-shell LED, HFLD
   Martin Brehm           : Molecular dynamics
   Dmytro Bykov           : SCF Hessian
   Vijay G. Chilkuri      : MRCI spin determinant printing, contributions to CSF-ICE
   Dipayan Datta          : RHF DLPNO-CCSD density
   Achintya Kumar Dutta   : EOM-CC, STEOM-CC
   Dmitry Ganyushin       : Spin-Orbit,Spin-Spin,Magnetic field MRCI
   Miquel Garcia          : C-PCM and meta-GGA Hessian, CC/C-PCM, Gaussian charge scheme
   Yang Guo               : DLPNO-NEVPT2, F12-NEVPT2, CIM, IAO-localization
   Andreas Hansen         : Spin unrestricted coupled pair/coupled cluster methods
   Benjamin Helmich-Paris : MC-RPA, TRAH-SCF, COSX integrals
   Lee Huntington         : MR-EOM, pCC
   Robert Izsak           : Overlap fitted RIJCOSX, COSX-SCS-MP3, EOM
   Marcus Kettner         : VPT2
   Christian Kollmar      : KDIIS, OOCD, Brueckner-CCSD(T), CCSD density, CASPT2, CASPT2-K
   Simone Kossmann        : Meta GGA functionals, TD-DFT gradient, OOMP2, MP2 Hessian
   Martin Krupicka        : Initial AUTO-CI
   Lucas Lang             : DCDCAS
   Marvin Lechner         : AUTO-CI (C++ implementation), FIC-MRCC
   Dagmar Lenk            : GEPOL surface, SMD
   Dimitrios Liakos       : Extrapolation schemes; Compound Job, initial MDCI parallelization
   Dimitrios Manganas     : Further ROCIS development; embedding schemes
   Dimitrios Pantazis     : SARC Basis sets
   Anastasios Papadopoulos: AUTO-CI, single reference methods and gradients
   Taras Petrenko         : DFT Hessian,TD-DFT gradient, ASA, ECA, R-Raman, ABS, FL, XAS/XES, NRVS
   Peter Pinski           : DLPNO-MP2, DLPNO-MP2 Gradient
   Christoph Reimann      : Effective Core Potentials
   Marius Retegan         : Local ZFS, SOC
   Christoph Riplinger    : Optimizer, TS searches, QM/MM, DLPNO-CCSD(T), (RO)-DLPNO pert. Triples
   Tobias Risthaus        : Range-separated hybrids, TD-DFT gradient, RPA, STAB
   Michael Roemelt        : Original ROCIS implementation
   Masaaki Saitow         : Open-shell DLPNO-CCSD energy and density
   Barbara Sandhoefer     : DKH picture change effects
   Avijit Sen             : IP-ROCIS
   Kantharuban Sivalingam : CASSCF convergence, NEVPT2, FIC-MRCI
   Bernardo de Souza      : ESD, SOC TD-DFT
   Georgi Stoychev        : AutoAux, RI-MP2 NMR, DLPNO-MP2 response
   Willem Van den Heuvel  : Paramagnetic NMR
   Boris Wezisla          : Elementary symmetry handling
   Frank Wennmohs         : Technical directorship


 We gratefully acknowledge several colleagues who have allowed us to
 interface, adapt or use parts of their codes:
   Stefan Grimme, W. Hujo, H. Kruse, P. Pracht,  : VdW corrections, initial TS optimization,
                  C. Bannwarth, S. Ehlert          DFT functionals, gCP, sTDA/sTD-DF
   Ed Valeev, F. Pavosevic, A. Kumar             : LibInt (2-el integral package), F12 methods
   Garnet Chan, S. Sharma, J. Yang, R. Olivares  : DMRG
   Ulf Ekstrom                                   : XCFun DFT Library
   Mihaly Kallay                                 : mrcc  (arbitrary order and MRCC methods)
   Jiri Pittner, Ondrej Demel                    : Mk-CCSD
   Frank Weinhold                                : gennbo (NPA and NBO analysis)
   Christopher J. Cramer and Donald G. Truhlar   : smd solvation model
   Lars Goerigk                                  : TD-DFT with DH, B97 family of functionals
   V. Asgeirsson, H. Jonsson                     : NEB implementation
   FAccTs GmbH                                   : IRC, NEB, NEB-TS, DLPNO-Multilevel, CI-OPT
                                                   MM, QMMM, 2- and 3-layer-ONIOM, Crystal-QMMM,
                                                   LR-CPCM, SF, NACMEs, symmetry and pop. for TD-DFT,
                                                   nearIR, NL-DFT gradient (VV10), updates on ESD,
                                                   ML-optimized integration grids
   S Lehtola, MJT Oliveira, MAL Marques          : LibXC Library
   Liviu Ungur et al                             : ANISO software


 Your calculation uses the libint2 library for the computation of 2-el integrals
 For citations please refer to: http://libint.valeyev.net

 Your ORCA version has been built with support for libXC version: 5.1.0
 For citations please refer to: https://tddft.org/programs/libxc/

 This ORCA versions uses:
   CBLAS   interface :  Fast vector & matrix operations
   LAPACKE interface :  Fast linear algebra routines
   SCALAPACK package :  Parallel linear algebra routines
   Shared memory     :  Shared parallel matrices
   BLAS/LAPACK       :  OpenBLAS 0.3.15  USE64BITINT DYNAMIC_ARCH NO_AFFINITY Haswell SINGLE_THREADED
        Core in use  :  Haswell
   Copyright (c) 2011-2014, The OpenBLAS Project


Your calculation utilizes the atom-pairwise dispersion correction
with the Becke-Johnson damping scheme (D3BJ)
Cite in your paper:
S.Grimme, S.Ehrlich, L.Goerigk, J Comput Chem, (2011), 32, 1456–1465 
S.Grimme, J.Antony, S.Ehrlich and H.Krieg, J.Chem.Phys., 132, (2010), 154104 
   

================================================================================

----- Orbital basis set information -----
Your calculation utilizes the basis: def2-TZVP
   F. Weigend and R. Ahlrichs, Phys. Chem. Chem. Phys. 7, 3297 (2005).

----- AuxJ basis set information -----
Your calculation utilizes the auxiliary basis: def2/J
   F. Weigend, Phys. Chem. Chem. Phys. 8, 1057 (2006).

================================================================================
                                        WARNINGS
                       Please study these warnings very carefully!
================================================================================


WARNING: The environment variable RSH_COMMAND is not set!
  ===> : All Displacements for the Numerical Hessian or Gradient calculation
         will be started on localhost

INFO   : the flag for use of the SHARK integral package has been found!

Your calculation utilizes the atom-pairwise dispersion correction
with the Becke-Johnson damping scheme (D3BJ)
Cite in your paper:
S.Grimme, S.Ehrlich, L.Goerigk, J Comput Chem, (2011), 32, 1456–1465 
S.Grimme, J.Antony, S.Ehrlich and H.Krieg, J.Chem.Phys., 132, (2010), 154104 
   

================================================================================

----- Orbital basis set information -----
Your calculation utilizes the basis: def2-TZVP
   F. Weigend and R. Ahlrichs, Phys. Chem. Chem. Phys. 7, 3297 (2005).

----- AuxJ basis set information -----
Your calculation utilizes the auxiliary basis: def2/J
   F. Weigend, Phys. Chem. Chem. Phys. 8, 1057 (2006).

================================================================================
                                        WARNINGS
                       Please study these warnings very carefully!
================================================================================


WARNING: MOInp is set but Guess=PModel. MOInp will be ignored!
         To read the initial guess from a file you must also specify
         'MORead' in the simple input or 'Guess MORead' in the %scf block


WARNING: The environment variable RSH_COMMAND is not set!
  ===> : All Displacements for the Numerical Hessian or Gradient calculation
         will be started on localhost

INFO   : the flag for use of the SHARK integral package has been found!

Your calculation utilizes the atom-pairwise dispersion correction
with the Becke-Johnson damping scheme (D3BJ)
Cite in your paper:
S.Grimme, S.Ehrlich, L.Goerigk, J Comput Chem, (2011), 32, 1456–1465 
S.Grimme, J.Antony, S.Ehrlich and H.Krieg, J.Chem.Phys., 132, (2010), 154104 
   

================================================================================

----- Orbital basis set information -----
Your calculation utilizes the basis: def2-TZVP
   F. Weigend and R. Ahlrichs, Phys. Chem. Chem. Phys. 7, 3297 (2005).

----- AuxJ basis set information -----
Your calculation utilizes the auxiliary basis: def2/J
   F. Weigend, Phys. Chem. Chem. Phys. 8, 1057 (2006).

================================================================================
                                        WARNINGS
                       Please study these warnings very carefully!
================================================================================


WARNING: MOInp is set but Guess=PModel. MOInp will be ignored!
         To read the initial guess from a file you must also specify
         'MORead' in the simple input or 'Guess MORead' in the %scf block


WARNING: The environment variable RSH_COMMAND is not set!
  ===> : All Displacements for the Numerical Hessian or Gradient calculation
         will be started on localhost

INFO   : the flag for use of the SHARK integral package has been found!

Your calculation utilizes the atom-pairwise dispersion correction
with the Becke-Johnson damping scheme (D3BJ)
Cite in your paper:
S.Grimme, S.Ehrlich, L.Goerigk, J Comput Chem, (2011), 32, 1456–1465 
S.Grimme, J.Antony, S.Ehrlich and H.Krieg, J.Chem.Phys., 132, (2010), 154104 
   

================================================================================

----- Orbital basis set information -----
Your calculation utilizes the basis: def2-TZVP
   F. Weigend and R. Ahlrichs, Phys. Chem. Chem. Phys. 7, 3297 (2005).

----- AuxJ basis set information -----
Your calculation utilizes the auxiliary basis: def2/J
   F. Weigend, Phys. Chem. Chem. Phys. 8, 1057 (2006).

================================================================================
                                        WARNINGS
                       Please study these warnings very carefully!
================================================================================


WARNING: MOInp is set but Guess=PModel. MOInp will be ignored!
         To read the initial guess from a file you must also specify
         'MORead' in the simple input or 'Guess MORead' in the %scf block


WARNING: The environment variable RSH_COMMAND is not set!
  ===> : All Displacements for the Numerical Hessian or Gradient calculation
         will be started on localhost

INFO   : the flag for use of the SHARK integral package has been found!

Your calculation utilizes the atom-pairwise dispersion correction
with the Becke-Johnson damping scheme (D3BJ)
Cite in your paper:
S.Grimme, S.Ehrlich, L.Goerigk, J Comput Chem, (2011), 32, 1456–1465 
S.Grimme, J.Antony, S.Ehrlich and H.Krieg, J.Chem.Phys., 132, (2010), 154104 
   

================================================================================

----- Orbital basis set information -----
Your calculation utilizes the basis: def2-TZVP
   F. Weigend and R. Ahlrichs, Phys. Chem. Chem. Phys. 7, 3297 (2005).

----- AuxJ basis set information -----
Your calculation utilizes the auxiliary basis: def2/J
   F. Weigend, Phys. Chem. Chem. Phys. 8, 1057 (2006).

================================================================================
                                        WARNINGS
                       Please study these warnings very carefully!
================================================================================


WARNING: MOInp is set but Guess=PModel. MOInp will be ignored!
         To read the initial guess from a file you must also specify
         'MORead' in the simple input or 'Guess MORead' in the %scf block


WARNING: The environment variable RSH_COMMAND is not set!
  ===> : All Displacements for the Numerical Hessian or Gradient calculation
         will be started on localhost

INFO   : the flag for use of the SHARK integral package has been found!

================================================================================
                                       INPUT FILE
================================================================================
NAME = ex.inp
|  1> ! PBE D3 def2-TZVP opt numfreq PModel NOAUTOSTART
|  2> %pal nprocs=16 end
|  3> %geom maxiter=150 end
|  4> %base "neutral"
|  5> *xyz 0 1
|  6>   C   0.22372926409855     -0.88114566249646     -0.60842035228000
|  7>   C   -1.07068283945135      1.48509097161799      0.10701382551464
|  8>   C   -1.04669652735943     -0.93277701118718     -0.03180557247982
|  9>   C   0.88602002497324      0.34583502720657     -0.78884885331771
| 10>   C   0.22224013362563      1.52375099642693     -0.42986456262950
| 11>   C   -1.70181130192503      0.26035147758650      0.32899761948308
| 12>   O   -2.93726661712403      0.20567103009847      0.90144268380485
| 13>   O   -1.70147654350721     -2.10193970120121      0.24170868867634
| 14>   C   2.34540851225664      0.31703136789894     -1.16251030696899
| 15>   C   3.24411476175161      0.51923546518566      0.07418057404254
| 16>   N   2.70369253444391     -0.17919124767805      1.27796576697750
| 17>   H   0.67833857472346     -1.81372026024812     -0.95480442539235
| 18>   H   -1.59348449376626      2.40125217870293      0.38444219367742
| 19>   H   0.71399136003223      2.49004008077532     -0.56561754550002
| 20>   H   -3.13769173549268     -0.74710122492178      1.01244366924886
| 21>   H   -1.00636296992359     -2.77608126232985      0.51310214972503
| 22>   H   2.59988533374305      1.09399262728196     -1.89987702794573
| 23>   H   2.57923699887465     -0.65691823765903     -1.61818417315540
| 24>   H   4.25136466509747      0.12534735435386     -0.11918901287379
| 25>   H   3.33977867682062      1.59573904260316      0.29257456002750
| 26>   H   1.91029584067807      0.37036275782101      1.63048200218553
| 27>   H   3.41275916776129     -0.16811667603640      2.01637272399704
| 28>   Cu  0.70720969885825     -4.00147875551313      1.36992038096897
| 29>   Cu  1.82338081453584     -1.99156558839509      1.17653719948201
| 30> *
| 31> 
| 32> 
| 33> $new_job
| 34> 
| 35> ! PBE D3 def2-TZVP opt numfreq PModel NOAUTOSTART
| 36> %pal nprocs=16 end
| 37> %geom maxiter=150 end
| 38> %base "protonated"
| 39> *xyz 1 1
| 40>   C   0.95730154716961      1.50630612676510     -0.68016361291017
| 41>   C   0.04524174398219     -0.76040063067918      0.70741026574030
| 42>   C   1.79144137783349      0.38265823398781     -0.54450604797491
| 43>   C   -0.34623389964022      1.49381415794017     -0.10275029270652
| 44>   C   -0.80711600058864      0.34404399302199      0.57872180280197
| 45>   C   1.33182720695359     -0.75707216421891      0.16105031582488
| 46>   O   3.06213214203982      0.29015201386610     -1.01530396903929
| 47>   O   2.12264980628525     -1.83503601880566      0.32391070095347
| 48>   C   -2.20700178319140      0.29127313032854      1.14228527068865
| 49>   C   -3.15518957150332     -0.64210954476284      0.38599032458464
| 50>   N   -3.46627848672009     -0.14156929111284     -0.99789458889615
| 51>   H   -2.58760905199411     -0.13247929679990     -1.67750370489943
| 52>   H   -4.16792805290246     -0.73591740386438     -1.46067366021811
| 53>   H   -3.83365567782592      0.81999745855840     -0.98003825928273
| 54>   H   1.35090577170108      2.42602359061310     -1.11929909811235
| 55>   H   -0.27092961514871     -1.65583378614863      1.24620242157968
| 56>   H   -0.93616957935508      2.41207142802774     -0.09985450223317
| 57>   H   3.33894165802556      1.11421543000745     -1.45464678802582
| 58>   H   2.98725818211501     -1.66150756720834     -0.10065857518988
| 59>   H   -2.63895912393897      1.30394736824241      1.18710301584645
| 60>   H   -2.17959924335323     -0.07417228928210      2.18065701328879
| 61>   H   -2.71503917087669     -1.64032919125932      0.26051883263151
| 62>   H   -4.10879279914801     -0.74447701621204      0.92041427935637
| 63>   Cu  -0.50353730697855      0.61816643382463     -2.02415612651504
| 64>   Cu  -1.59538463955308     -0.52315008682230     -3.67249660205010
| 65> *
| 66> 
| 67> 
| 68> $new_job
| 69> 
| 70> ! PBE D3 def2-TZVP opt numfreq PModel NOAUTOSTART
| 71> %pal nprocs=16 end
| 72> %geom maxiter=150 end
| 73> %base "deprotonated"
| 74> *xyz -1 1
| 75>   O   2.31367888509979     -1.87494859519095     -0.31939967541267
| 76>   O   3.28514698170801      0.45515129967641     -0.39793904522743
| 77>   N   -2.76893783759014      0.63377356601621     -1.16768647622960
| 78>   C   -2.13651651900659     -0.19267632876612      1.11154863905808
| 79>   C   -0.68104749592571      0.00723505738565      0.78462908876301
| 80>   C   -2.98498118540229     -0.43240239639086     -0.14892072748734
| 81>   C   0.13026214782716     -1.10070587183036      0.42111568813508
| 82>   C   -0.11814159482424      1.28922919046171      0.73404483147465
| 83>   C   1.44089050102791     -0.89511951795389      0.03528262350433
| 84>   C   1.21319334976892      1.50778339451256      0.34074820756348
| 85>   C   2.05039007135417      0.42534455645782     -0.02598477339793
| 86>   H   -2.52656517326151      0.69871595609085      1.63559565876510
| 87>   H   -2.29092520677877     -1.05171113819204      1.79015998096071
| 88>   H   -4.06167153163019     -0.47593045596085      0.07771771561750
| 89>   H   -2.70290229867100     -1.38535111014386     -0.61779915879917
| 90>   H   -0.27326439612200     -2.11856489326121      0.45206853762963
| 91>   H   -0.73568133201055      2.14680384840980      1.02793972686275
| 92>   H   1.62884879046966      2.51868050942688      0.32450210224987
| 93>   H   -1.75006212946712      0.66738540356326     -1.33183376986665
| 94>   H   -2.96798550714596      1.53889008371802     -0.72341302343087
| 95>   H   3.11494997451803     -1.26840645421640     -0.50820901947766
| 96>   Cu  -5.20988886306249      0.34114440192749     -4.66767286446111
| 97>   Cu  -3.85588801073803      0.50178862020689     -2.81520951812176
| 98> *
| 99> 
|100> $new_job
|101> 
|102> ! PBE D3 def2-TZVP opt numfreq PModel NOAUTOSTART
|103> %pal nprocs=16 end
|104> %geom maxiter=150 end
|105> %base "2x_deprotonated"
|106> *xyz -2 1
|107>   O   2.46814301741140     -2.01044980552581      0.30338684813901
|108>   O   3.45834451640272      0.61946037522922     -0.12094796142498
|109>   N   -2.88174351721716      0.74958439685763     -1.19919465663097
|110>   C   -2.06412789312340     -0.26199986362857      0.95655640970756
|111>   C   -0.60257450364842     -0.03754576853318      0.66421447874941
|112>   C   -2.92856982750816     -0.43930024096597     -0.29653150858661
|113>   C   0.28949283951553     -1.11810551344438      0.60758273361744
|114>   C   -0.09676793123113      1.26778451818401      0.45450297814254
|115>   C   1.69786888692748     -1.00270065180052      0.33496543142243
|116>   C   1.25990413971976      1.46746815303204      0.18140642123956
|117>   C   2.22759911560959      0.40489154809024      0.10221651515146
|118>   H   -2.47592431448900      0.59574985934956      1.52832163355743
|119>   H   -2.19505567264087     -1.15836145380661      1.59407773454862
|120>   H   -3.98906366374209     -0.61348343630916     -0.04115148765753
|121>   H   -2.57784430343216     -1.30163469928875     -0.88176501290674
|122>   H   -0.08118116457120     -2.13768724545740      0.78165268287705
|123>   H   -0.76809731779379      2.12931210961683      0.56809365274481
|124>   H   1.65140790176950      2.48217880220519      0.03942421719397
|125>   H   -1.89605021118925      0.86023677103263     -1.49078221278413
|126>   H   -3.05061130325295      1.58348300667123     -0.61677935193135
|127>   Cu  -6.03249131214932      0.88001248278352     -4.27769256561310
|128>   Cu  -4.33266079603200      0.79556709139330     -2.63081167212686
|129> *
|130> 
|131> 
|132> $new_job
|133> 
|134> ! PBE D3 def2-TZVP opt numfreq PModel NOAUTOSTART
|135> %pal nprocs=16 end
|136> %geom maxiter=150 end
|137> %base "zwitterione"
|138> *xyz 0 1
|139>   O   1.83878337198344     -2.56034111317584      1.18367772007034
|140>   C   1.33751811840745     -1.35077927265182      0.88937039543071
|141>   C   -0.01394748466121     -1.05491536555942      0.84118469846555
|142>   C   -0.45066743108311      0.27708767591970      0.56887966132016
|143>   C   -1.89898367429902      0.55005821427295      0.25880606233105
|144>   C   -2.43052154600409     -0.32760688285182     -0.90524067392657
|145>   N   -1.31007925720513     -0.78002399153633     -1.79357271155264
|146>   H   -1.62289433753759     -1.43372127582651     -2.52039462093592
|147>   H   -0.74868381070685      0.01358900084713     -2.29000830993706
|148>   H   -0.58823683175049     -1.23553968323077     -1.18704835460400
|149>   C   0.50876766088723      1.27585001977672      0.37520201667347
|150>   C   1.92202211207620      0.99676846683525      0.41528832726441
|151>   C   2.38555723510625     -0.33587861952311      0.70488751104086
|152>   O   3.57670632500956     -0.73043411349966      0.85623371944873
|153>   H   2.82831960659905     -2.34100551271862      1.16477134586094
|154>   H   -0.73952634324377     -1.84468215500076      1.06724589039501
|155>   H   -2.55825131046764      0.36529579041255      1.12354604649062
|156>   H   -2.00914583394304      1.60980459114627     -0.00840842129013
|157>   H   -2.91015927737841     -1.23981505134623     -0.52652539897910
|158>   H   -3.15712113583558      0.20966533622889     -1.52820121542070
|159>   H   0.17612369965784      2.31086151677732      0.25240820049558
|160>   H   2.64276905284969      1.81667467222596      0.47828225876683
|161>   Cu  0.58860163395956      0.94118045644528     -3.76153282551949
|162>   Cu  1.38115087934666      0.92629332340489     -1.58802234245863
|163> *
|164> 
|165>                          ****END OF INPUT****
================================================================================


                 $$$$$$$$$$$$$$$$$$$$$$$$$$$$$$$$$$$$$$$$$$$$$$ 
                 $ THERE ARE  5 JOBS TO BE PROCESSED THIS RUN $
                 $$$$$$$$$$$$$$$$$$$$$$$$$$$$$$$$$$$$$$$$$$$$$$ 




                 $$$$$$$$$$$$$$$$  JOB NUMBER  1 $$$$$$$$$$$$$$


                       *****************************
                       * Geometry Optimization Run *
                       *****************************

Geometry optimization settings:
Update method            Update   .... BFGS
Choice of coordinates    CoordSys .... Z-matrix Internals
Initial Hessian          InHess   .... Almoef's Model

Convergence Tolerances:
Energy Change            TolE     ....  5.0000e-06 Eh
Max. Gradient            TolMAXG  ....  3.0000e-04 Eh/bohr
RMS Gradient             TolRMSG  ....  1.0000e-04 Eh/bohr
Max. Displacement        TolMAXD  ....  4.0000e-03 bohr
RMS Displacement         TolRMSD  ....  2.0000e-03 bohr
Strict Convergence                ....  False
------------------------------------------------------------------------------
                        ORCA OPTIMIZATION COORDINATE SETUP
------------------------------------------------------------------------------

The optimization will be done in new redundant internal coordinates
Making redundant internal coordinates   ...  (new redundants) done
Evaluating the initial hessian          ...  (Almloef) done
Evaluating the coordinates              ...  done
Calculating the B-matrix                .... done
Calculating the G-matrix                .... done
Diagonalizing the G-matrix              .... done
The first mode is                       ....   71
The number of degrees of freedom        ....   66

    -----------------------------------------------------------------
                    Redundant Internal Coordinates


    -----------------------------------------------------------------
         Definition                    Initial Value    Approx d2E/dq
    -----------------------------------------------------------------
      1. B(C   2,C   0)                  1.3961         0.610921   
      2. B(C   3,C   0)                  1.4059         0.589262   
      3. B(C   4,C   3)                  1.3989         0.604668   
      4. B(C   4,C   1)                  1.4005         0.601169   
      5. B(C   5,C   2)                  1.4082         0.584478   
      6. B(C   5,C   1)                  1.3956         0.612165   
      7. B(O   6,C   5)                  1.3627         0.618562   
      8. B(O   7,C   2)                  1.3677         0.607464   
      9. B(C   8,C   3)                  1.5067         0.406899   
     10. B(C   9,C   8)                  1.5421         0.357379   
     11. B(N  10,C   9)                  1.4930         0.383350   
     12. B(H  11,C   0)                  1.0938         0.355139   
     13. B(H  12,C   1)                  1.0907         0.359167   
     14. B(H  13,C   4)                  1.0927         0.356564   
     15. B(H  14,O   6)                  0.9799         0.483244   
     16. B(H  15,O   7)                  1.0056         0.439701   
     17. B(H  16,C   8)                  1.1010         0.345875   
     18. B(H  17,C   8)                  1.1004         0.346595   
     19. B(H  18,C   9)                  1.0987         0.348802   
     20. B(H  19,C   9)                  1.1026         0.343823   
     21. B(H  20,N  10)                  1.0275         0.405766   
     22. B(H  21,N  10)                  1.0238         0.411336   
     23. B(Cu 23,Cu 22)                  2.3072         2.201498   
     24. B(Cu 23,N  10)                  2.0174         0.564950   
     25. B(Cu 23,C   0)                  2.6416         0.063684   
     26. A(C   2,C   0,C   3)          120.9264         0.428980   
     27. A(H  11,C   0,Cu 23)           66.6647         0.270527   
     28. A(C   3,C   0,H  11)          120.5080         0.349071   
     29. A(C   3,C   0,Cu 23)           99.6895         0.324373   
     30. A(C   2,C   0,Cu 23)          104.8579         0.326303   
     31. A(C   2,C   0,H  11)          118.5209         0.351205   
     32. A(C   4,C   1,H  12)          121.1197         0.350919   
     33. A(C   4,C   1,C   5)          120.1793         0.430681   
     34. A(C   5,C   1,H  12)          118.6807         0.351996   
     35. A(C   5,C   2,O   7)          116.7662         0.425129   
     36. A(C   0,C   2,O   7)          123.3582         0.428513   
     37. A(C   0,C   2,C   5)          119.8568         0.428354   
     38. A(C   4,C   3,C   8)          122.6374         0.400920   
     39. A(C   0,C   3,C   4)          118.5804         0.428190   
     40. A(C   0,C   3,C   8)          118.1255         0.399103   
     41. A(C   1,C   4,C   3)          120.8760         0.429729   
     42. A(C   3,C   4,H  13)          119.9469         0.350832   
     43. A(C   1,C   4,H  13)          119.1770         0.350488   
     44. A(C   1,C   5,O   6)          120.7995         0.430064   
     45. A(C   1,C   5,C   2)          119.5007         0.428510   
     46. A(C   2,C   5,O   6)          119.6969         0.426509   
     47. A(C   5,O   6,H  14)          105.7847         0.365350   
     48. A(C   2,O   7,H  15)          107.2243         0.358400   
     49. A(H  16,C   8,H  17)          107.3468         0.287284   
     50. A(C   9,C   8,H  17)          108.9238         0.319963   
     51. A(C   3,C   8,C   9)          111.2900         0.365917   
     52. A(C   3,C   8,H  17)          108.9915         0.326847   
     53. A(C   9,C   8,H  16)          108.0515         0.319854   
     54. A(C   3,C   8,H  16)          112.1155         0.326736   
     55. A(N  10,C   9,H  19)          109.1742         0.321306   
     56. A(C   8,C   9,H  19)          109.7208         0.319544   
     57. A(N  10,C   9,H  18)          107.8214         0.322063   
     58. A(C   8,C   9,H  18)          110.2513         0.320295   
     59. A(C   8,C   9,N  10)          111.9830         0.359958   
     60. A(H  18,C   9,H  19)          107.7791         0.287301   
     61. A(H  21,N  10,Cu 23)          110.3771         0.391214   
     62. A(H  20,N  10,Cu 23)           99.2532         0.390283   
     63. A(C   9,N  10,Cu 23)          122.5258         0.434089   
     64. A(H  20,N  10,H  21)          106.3533         0.297755   
     65. A(C   9,N  10,H  21)          109.0130         0.328107   
     66. A(C   9,N  10,H  20)          107.8140         0.327371   
     67. A(N  10,Cu 23,Cu 22)          171.6955         0.753331   
     68. A(C   0,Cu 23,Cu 22)           97.4625         0.496719   
     69. A(C   0,Cu 23,N  10)           85.4446         0.356688   
     70. D(O   7,C   2,C   0,Cu 23)    -64.6569         0.028011   
     71. D(C   5,C   2,C   0,C   3)      2.4934         0.028011   
     72. D(O   7,C   2,C   0,H  11)      6.5442         0.028011   
     73. D(C   5,C   2,C   0,Cu 23)    113.7122         0.028011   
     74. D(O   7,C   2,C   0,C   3)   -175.8757         0.028011   
     75. D(C   5,C   2,C   0,H  11)   -175.0867         0.028011   
     76. D(C   8,C   3,C   0,Cu 23)     54.3774         0.025949   
     77. D(C   4,C   3,C   0,H  11)    174.8731         0.025949   
     78. D(C   8,C   3,C   0,H  11)    -14.1654         0.025949   
     79. D(C   4,C   3,C   0,C   2)     -2.6590         0.025949   
     80. D(C   8,C   3,C   0,C   2)    168.3025         0.025949   
     81. D(C   4,C   3,C   0,Cu 23)   -116.5841         0.025949   
     82. D(H  13,C   4,C   1,C   5)   -177.9597         0.024920   
     83. D(C   3,C   4,C   1,H  12)   -179.7453         0.024920   
     84. D(H  13,C   4,C   3,C   8)      9.7978         0.025227   
     85. D(C   1,C   4,C   3,C   8)   -170.0784         0.025227   
     86. D(C   1,C   4,C   3,C   0)      0.4520         0.025227   
     87. D(H  13,C   4,C   1,H  12)      0.3776         0.024920   
     88. D(H  13,C   4,C   3,C   0)   -179.6719         0.025227   
     89. D(C   3,C   4,C   1,C   5)      1.9174         0.024920   
     90. D(O   6,C   5,C   2,O   7)     -1.0006         0.023487   
     91. D(C   1,C   5,C   2,O   7)    178.3851         0.023487   
     92. D(C   1,C   5,C   2,C   0)     -0.0893         0.023487   
     93. D(O   6,C   5,C   1,H  12)     -1.0895         0.025892   
     94. D(O   6,C   5,C   2,C   0)   -179.4750         0.023487   
     95. D(C   2,C   5,C   1,H  12)    179.5318         0.025892   
     96. D(C   2,C   5,C   1,C   4)     -2.0908         0.025892   
     97. D(O   6,C   5,C   1,C   4)    177.2880         0.025892   
     98. D(H  14,O   6,C   5,C   2)      3.4340         0.028062   
     99. D(H  14,O   6,C   5,C   1)   -175.9436         0.028062   
    100. D(H  15,O   7,C   2,C   0)     34.7426         0.026996   
    101. D(H  15,O   7,C   2,C   5)   -143.6733         0.026996   
    102. D(H  17,C   8,C   3,C   4)   -167.3192         0.012270   
    103. D(H  17,C   8,C   3,C   0)     22.1096         0.012270   
    104. D(H  16,C   8,C   3,C   4)    -48.6195         0.012270   
    105. D(H  16,C   8,C   3,C   0)    140.8093         0.012270   
    106. D(C   9,C   8,C   3,C   4)     72.5342         0.012270   
    107. D(C   9,C   8,C   3,C   0)    -98.0370         0.012270   
    108. D(H  19,C   9,C   8,H  16)     40.4613         0.010257   
    109. D(H  19,C   9,C   8,C   3)    -83.0410         0.010257   
    110. D(H  18,C   9,C   8,H  17)     38.2176         0.010257   
    111. D(H  18,C   9,C   8,H  16)    -78.0934         0.010257   
    112. D(H  18,C   9,C   8,C   3)    158.4043         0.010257   
    113. D(N  10,C   9,C   8,H  17)    -81.8307         0.010257   
    114. D(N  10,C   9,C   8,H  16)    161.8583         0.010257   
    115. D(H  19,C   9,C   8,H  17)    156.7723         0.010257   
    116. D(N  10,C   9,C   8,C   3)     38.3560         0.010257   
    117. D(Cu 23,N  10,C   9,H  19)    159.9971         0.013452   
    118. D(Cu 23,N  10,C   9,C   8)     38.2858         0.013452   
    119. D(H  21,N  10,C   9,H  19)    -68.9662         0.013452   
    120. D(H  21,N  10,C   9,H  18)     47.8651         0.013452   
    121. D(H  21,N  10,C   9,C   8)    169.3225         0.013452   
    122. D(H  20,N  10,C   9,H  19)     46.0914         0.013452   
    123. D(Cu 23,N  10,C   9,H  18)    -83.1717         0.013452   
    124. D(H  20,N  10,C   9,H  18)    162.9227         0.013452   
    125. D(H  20,N  10,C   9,C   8)    -75.6198         0.013452   
    126. D(Cu 22,Cu 23,C   0,H  11)    -59.3811         0.001519   
    127. D(Cu 22,Cu 23,C   0,C   3)   -178.5395         0.001519   
    128. D(Cu 22,Cu 23,C   0,C   2)     55.6783         0.001519   
    129. D(N  10,Cu 23,C   0,H  11)    128.4419         0.001519   
    130. D(N  10,Cu 23,C   0,C   3)      9.2835         0.001519   
    131. D(C   0,Cu 23,N  10,C   9)    -55.2085         0.002954   
    132. D(N  10,Cu 23,C   0,C   2)   -116.4988         0.001519   
    133. D(Cu 22,Cu 23,N  10,H  21)     63.4536         0.002954   
    134. D(Cu 22,Cu 23,N  10,H  20)    -47.9435         0.002954   
    135. D(Cu 22,Cu 23,N  10,C   9)   -166.0763         0.002954   
    136. D(C   0,Cu 23,N  10,H  21)    174.3214         0.002954   
    137. D(C   0,Cu 23,N  10,H  20)     62.9242         0.002954   
    -----------------------------------------------------------------

Number of atoms                         .... 24
Number of degrees of freedom            .... 137

         *************************************************************
         *                GEOMETRY OPTIMIZATION CYCLE   1            *
         *************************************************************
---------------------------------
CARTESIAN COORDINATES (ANGSTROEM)
---------------------------------
  C      0.223729   -0.881146   -0.608420
  C     -1.070683    1.485091    0.107014
  C     -1.046697   -0.932777   -0.031806
  C      0.886020    0.345835   -0.788849
  C      0.222240    1.523751   -0.429865
  C     -1.701811    0.260351    0.328998
  O     -2.937267    0.205671    0.901443
  O     -1.701477   -2.101940    0.241709
  C      2.345409    0.317031   -1.162510
  C      3.244115    0.519235    0.074181
  N      2.703693   -0.179191    1.277966
  H      0.678339   -1.813720   -0.954804
  H     -1.593484    2.401252    0.384442
  H      0.713991    2.490040   -0.565618
  H     -3.137692   -0.747101    1.012444
  H     -1.006363   -2.776081    0.513102
  H      2.599885    1.093993   -1.899877
  H      2.579237   -0.656918   -1.618184
  H      4.251365    0.125347   -0.119189
  H      3.339779    1.595739    0.292575
  H      1.910296    0.370363    1.630482
  H      3.412759   -0.168117    2.016373
  Cu     0.707210   -4.001479    1.369920
  Cu     1.823381   -1.991566    1.176537

----------------------------
CARTESIAN COORDINATES (A.U.)
----------------------------
  NO LB      ZA    FRAG     MASS         X           Y           Z
   0 C     6.0000    0    12.011    0.422787   -1.665124   -1.149748
   1 C     6.0000    0    12.011   -2.023297    2.806415    0.202227
   2 C     6.0000    0    12.011   -1.977970   -1.762693   -0.060104
   3 C     6.0000    0    12.011    1.674335    0.653533   -1.490708
   4 C     6.0000    0    12.011    0.419973    2.879472   -0.812326
   5 C     6.0000    0    12.011   -3.215957    0.491993    0.621715
   6 O     8.0000    0    15.999   -5.550629    0.388662    1.703480
   7 O     8.0000    0    15.999   -3.215325   -3.972090    0.456763
   8 C     6.0000    0    12.011    4.432180    0.599102   -2.196826
   9 C     6.0000    0    12.011    6.130488    0.981213    0.140181
  10 N     7.0000    0    14.007    5.109238   -0.338622    2.415005
  11 H     1.0000    0     1.008    1.281874   -3.427435   -1.804319
  12 H     1.0000    0     1.008   -3.011249    4.537709    0.726490
  13 H     1.0000    0     1.008    1.349248    4.705494   -1.068862
  14 H     1.0000    0     1.008   -5.929378   -1.411817    1.913241
  15 H     1.0000    0     1.008   -1.901750   -5.246033    0.969623
  16 H     1.0000    0     1.008    4.913071    2.067346   -3.590247
  17 H     1.0000    0     1.008    4.874052   -1.241396   -3.057925
  18 H     1.0000    0     1.008    8.033915    0.236872   -0.225235
  19 H     1.0000    0     1.008    6.311267    3.015510    0.552886
  20 H     1.0000    0     1.008    3.609936    0.699884    3.081164
  21 H     1.0000    0     1.008    6.449180   -0.317694    3.810392
  22 Cu   29.0000    0    63.550    1.336433   -7.561699    2.588774
  23 Cu   29.0000    0    63.550    3.445690   -3.763514    2.223333

--------------------------------
INTERNAL COORDINATES (ANGSTROEM)
--------------------------------
 C      0   0   0     0.000000000000     0.00000000     0.00000000
 C      1   0   0     2.790416557648     0.00000000     0.00000000
 C      1   2   0     1.396113208896    60.22148159     0.00000000
 C      1   2   3     1.405939226578    60.74954200   182.40745153
 C      4   1   2     1.398913684136   118.58038039   359.77685486
 C      2   1   3     1.395559661630    60.42092140   359.95495567
 O      6   2   1     1.362730031539   120.79949288   179.42330525
 O      3   1   2     1.367657967594   123.35818507   181.67565204
 C      4   1   2     1.506740617873   118.12552226   170.73839489
 C      9   4   1     1.542064770046   111.29000714   261.96297855
 N     10   9   4     1.492968468434   111.98295780    38.35595590
 H      1   2   3     1.093776454210   175.56643809    74.71877159
 H      2   1   3     1.090705930388   178.99611599   333.33017594
 H      5   4   1     1.092686018745   119.94690164   180.32814320
 H      7   6   2     0.979931842925   105.78474908   184.05642048
 H      8   3   1     1.005636184373   107.22432518    34.74255527
 H      9   4   1     1.100970904457   112.11553603   140.80925981
 H      9   4   1     1.100405501461   108.99149618    22.10962585
 H     10   9   4     1.098677390679   110.25126519   158.40426245
 H     10   9   4     1.102591252438   109.72079916   276.95895177
 H     11  10   9     1.027499690863   107.81395408   284.38016278
 H     11  10   9     1.023788538125   109.01298428   169.32254077
 Cu    16   8   3     2.274218060980   169.64039726    47.49265848
 Cu    11  10   9     2.017408543008   122.52583145    38.28578823

---------------------------
INTERNAL COORDINATES (A.U.)
---------------------------
 C      0   0   0     0.000000000000     0.00000000     0.00000000
 C      1   0   0     5.273123093515     0.00000000     0.00000000
 C      1   2   0     2.638271616763    60.22148159     0.00000000
 C      1   2   3     2.656840099170    60.74954200   182.40745153
 C      4   1   2     2.643563748012   118.58038039   359.77685486
 C      2   1   3     2.637225564029    60.42092140   359.95495567
 O      6   2   1     2.575186554078   120.79949288   179.42330525
 O      3   1   2     2.584499003628   123.35818507   181.67565204
 C      4   1   2     2.847327122636   118.12552226   170.73839489
 C      9   4   1     2.914080096156   111.29000714   261.96297855
 N     10   9   4     2.821301531921   111.98295780    38.35595590
 H      1   2   3     2.066937950189   175.56643809    74.71877159
 H      2   1   3     2.061135501077   178.99611599   333.33017594
 H      5   4   1     2.064877325793   119.94690164   180.32814320
 H      7   6   2     1.851802813038   105.78474908   184.05642048
 H      8   3   1     1.900376978827   107.22432518    34.74255527
 H      9   4   1     2.080533490838   112.11553603   140.80925981
 H      9   4   1     2.079465034022   108.99149618    22.10962585
 H     10   9   4     2.076199377914   110.25126519   158.40426245
 H     10   9   4     2.083595504766   109.72079916   276.95895177
 H     11  10   9     1.941693018420   107.81395408   284.38016278
 H     11  10   9     1.934679956104   109.01298428   169.32254077
 Cu    16   8   3     4.297649304070   169.64039726    47.49265848
 Cu    11  10   9     3.812349646518   122.52583145    38.28578823

---------------------
BASIS SET INFORMATION
---------------------
There are 5 groups of distinct atoms

 Group   1 Type C   : 11s6p2d1f contracted to 5s3p2d1f pattern {62111/411/11/1}
 Group   2 Type O   : 11s6p2d1f contracted to 5s3p2d1f pattern {62111/411/11/1}
 Group   3 Type N   : 11s6p2d1f contracted to 5s3p2d1f pattern {62111/411/11/1}
 Group   4 Type H   : 5s1p contracted to 3s1p pattern {311/1}
 Group   5 Type Cu  : 17s11p7d1f contracted to 6s4p4d1f pattern {842111/6311/4111/1}

Atom   0C    basis set group =>   1
Atom   1C    basis set group =>   1
Atom   2C    basis set group =>   1
Atom   3C    basis set group =>   1
Atom   4C    basis set group =>   1
Atom   5C    basis set group =>   1
Atom   6O    basis set group =>   2
Atom   7O    basis set group =>   2
Atom   8C    basis set group =>   1
Atom   9C    basis set group =>   1
Atom  10N    basis set group =>   3
Atom  11H    basis set group =>   4
Atom  12H    basis set group =>   4
Atom  13H    basis set group =>   4
Atom  14H    basis set group =>   4
Atom  15H    basis set group =>   4
Atom  16H    basis set group =>   4
Atom  17H    basis set group =>   4
Atom  18H    basis set group =>   4
Atom  19H    basis set group =>   4
Atom  20H    basis set group =>   4
Atom  21H    basis set group =>   4
Atom  22Cu   basis set group =>   5
Atom  23Cu   basis set group =>   5
---------------------------------
AUXILIARY/J BASIS SET INFORMATION
---------------------------------
There are 5 groups of distinct atoms

 Group   1 Type C   : 12s5p4d2f1g contracted to 6s4p3d1f1g pattern {711111/2111/211/2/1}
 Group   2 Type O   : 12s5p4d2f1g contracted to 6s4p3d1f1g pattern {711111/2111/211/2/1}
 Group   3 Type N   : 12s5p4d2f1g contracted to 6s4p3d1f1g pattern {711111/2111/211/2/1}
 Group   4 Type H   : 5s2p1d contracted to 3s1p1d pattern {311/2/1}
 Group   5 Type Cu  : 19s5p5d3f3g contracted to 8s5p4d3f3g pattern {121111111/11111/2111/111/111}

Atom   0C    basis set group =>   1
Atom   1C    basis set group =>   1
Atom   2C    basis set group =>   1
Atom   3C    basis set group =>   1
Atom   4C    basis set group =>   1
Atom   5C    basis set group =>   1
Atom   6O    basis set group =>   2
Atom   7O    basis set group =>   2
Atom   8C    basis set group =>   1
Atom   9C    basis set group =>   1
Atom  10N    basis set group =>   3
Atom  11H    basis set group =>   4
Atom  12H    basis set group =>   4
Atom  13H    basis set group =>   4
Atom  14H    basis set group =>   4
Atom  15H    basis set group =>   4
Atom  16H    basis set group =>   4
Atom  17H    basis set group =>   4
Atom  18H    basis set group =>   4
Atom  19H    basis set group =>   4
Atom  20H    basis set group =>   4
Atom  21H    basis set group =>   4
Atom  22Cu   basis set group =>   5
Atom  23Cu   basis set group =>   5
No protocol specified


           ************************************************************
           *        Program running with 16 parallel MPI-processes    *
           *              working on a common directory               *
           ************************************************************
------------------------------------------------------------------------------
                           ORCA GTO INTEGRAL CALCULATION
                           -- RI-GTO INTEGRALS CHOSEN --
------------------------------------------------------------------------------
------------------------------------------------------------------------------
                   ___                                                        
                  /   \      - P O W E R E D   B Y -                         
                 /     \                                                     
                 |  |  |   _    _      __       _____    __    __             
                 |  |  |  | |  | |    /  \     |  _  \  |  |  /  |          
                  \  \/   | |  | |   /    \    | | | |  |  | /  /          
                 / \  \   | |__| |  /  /\  \   | |_| |  |  |/  /          
                |  |  |   |  __  | /  /__\  \  |    /   |      \           
                |  |  |   | |  | | |   __   |  |    \   |  |\   \          
                \     /   | |  | | |  |  |  |  | |\  \  |  | \   \       
                 \___/    |_|  |_| |__|  |__|  |_| \__\ |__|  \__/        
                                                                              
                      - O R C A' S   B I G   F R I E N D -                    
                                      &                                       
                       - I N T E G R A L  F E E D E R -                       
                                                                              
 v1 FN, 2020, v2 2021                                                         
------------------------------------------------------------------------------


Reading SHARK input file neutral.SHARKINP.tmp ... ok
----------------------
SHARK INTEGRAL PACKAGE
----------------------

Number of atoms                             ...     24
Number of basis functions                   ...    497
Number of shells                            ...    195
Maximum angular momentum                    ...      3
Integral batch strategy                     ... SHARK/LIBINT Hybrid
RI-J (if used) integral strategy            ... SPLIT-RIJ (Revised 2003 algorithm where possible)
Printlevel                                  ...      1
Contraction scheme used                     ... SEGMENTED contraction
Coulomb Range Separation                    ... NOT USED
Exchange Range Separation                   ... NOT USED
Finite Nucleus Model                        ... NOT USED
Auxiliary Coulomb fitting basis             ... AVAILABLE
   # of basis functions in Aux-J            ...    842
   # of shells in Aux-J                     ...    266
   Maximum angular momentum in Aux-J        ...      4
Auxiliary J/K fitting basis                 ... NOT available
Auxiliary Correlation fitting basis         ... NOT available
Auxiliary 'external' fitting basis          ... NOT available
Integral threshold                          ...     2.500000e-11
Primitive cut-off                           ...     2.500000e-12
Primitive pair pre-selection threshold      ...     2.500000e-12

Calculating pre-screening integrals         ... done (  0.1 sec) Dimension = 195
Organizing shell pair data                  ... done (  0.6 sec)
Shell pair information
Total number of shell pairs                 ...     19110
Shell pairs after pre-screening             ...     15730
Total number of primitive shell pairs       ...     64654
Primitive shell pairs kept                  ...     35837
          la=0 lb=0:   4042 shell pairs
          la=1 lb=0:   4314 shell pairs
          la=1 lb=1:   1194 shell pairs
          la=2 lb=0:   2481 shell pairs
          la=2 lb=1:   1345 shell pairs
          la=2 lb=2:    404 shell pairs
          la=3 lb=0:   1007 shell pairs
          la=3 lb=1:    551 shell pairs
          la=3 lb=2:    320 shell pairs
          la=3 lb=3:     72 shell pairs

Calculating one electron integrals          ... done (  0.0 sec)
Calculating RI/J V-Matrix + Cholesky decomp.... done (  0.0 sec)
Calculating Nuclear repulsion               ... done (  0.0 sec) ENN=   1446.688748280373 Eh

SHARK setup successfully completed in   1.1 seconds

Maximum memory used throughout the entire GTOINT-calculation: 32.2 MB
No protocol specified


           ************************************************************
           *        Program running with 16 parallel MPI-processes    *
           *              working on a common directory               *
           ************************************************************
-------------------------------------------------------------------------------
                                 ORCA SCF
-------------------------------------------------------------------------------

------------
SCF SETTINGS
------------
Hamiltonian:
 Density Functional     Method          .... DFT(GTOs)
 Exchange Functional    Exchange        .... PBE
   PBE kappa parameter   XKappa         ....  0.804000
   PBE mue parameter    XMuePBE         ....  0.219520
 Correlation Functional Correlation     .... PBE
   PBE beta parameter  CBetaPBE         ....  0.066725
 LDA part of GGA corr.  LDAOpt          .... PW91-LDA
 Gradients option       PostSCFGGA      .... off
   Density functional embedding theory  .... OFF
   NL short-range parameter             ....  6.400000
 RI-approximation to the Coulomb term is turned on
   Number of AuxJ basis functions       .... 842


General Settings:
 Integral files         IntName         .... neutral
 Hartree-Fock type      HFTyp           .... RHF
 Total Charge           Charge          ....    0
 Multiplicity           Mult            ....    1
 Number of Electrons    NEL             ....  140
 Basis Dimension        Dim             ....  497
 Nuclear Repulsion      ENuc            ....   1446.6887482804 Eh

Convergence Acceleration:
 DIIS                   CNVDIIS         .... on
   Start iteration      DIISMaxIt       ....    12
   Startup error        DIISStart       ....  0.200000
   # of expansion vecs  DIISMaxEq       ....     5
   Bias factor          DIISBfac        ....   1.050
   Max. coefficient     DIISMaxC        ....  10.000
 Trust-Rad. Augm. Hess. CNVTRAH         .... auto
   Auto Start mean grad. ratio tolernc. ....  1.125000
   Auto Start start iteration           ....    20
   Auto Start num. interpolation iter.  ....    10
   Max. Number of Micro iterations      ....    16
   Max. Number of Macro iterations      .... Maxiter - #DIIS iter
   Number of Davidson start vectors     ....     2
   Converg. threshold I  (grad. norm)   ....   1.000e-05
   Converg. threshold II (energy diff.) ....   1.000e-08
   Grad. Scal. Fac. for Micro threshold ....   0.100
   Minimum threshold for Micro iter.    ....   0.010
   NR start threshold (gradient norm)   ....   0.001
   Initial trust radius                 ....   0.400
   Minimum AH scaling param. (alpha)    ....   1.000
   Maximum AH scaling param. (alpha)    .... 1000.000
   Orbital update algorithm             .... Taylor
   White noise on init. David. guess    .... on
   Maximum white noise                  ....   0.010
   Quad. conv. algorithm                .... NR
 SOSCF                  CNVSOSCF        .... off
 Level Shifting         CNVShift        .... on
   Level shift para.    LevelShift      ....    0.2500
   Turn off err/grad.   ShiftErr        ....    0.0010
 Zerner damping         CNVZerner       .... off
 Static damping         CNVDamp         .... on
   Fraction old density DampFac         ....    0.7000
   Max. Damping (<1)    DampMax         ....    0.9800
   Min. Damping (>=0)   DampMin         ....    0.0000
   Turn off err/grad.   DampErr         ....    0.1000
 Fernandez-Rico         CNVRico         .... off

SCF Procedure:
 Maximum # iterations   MaxIter         ....   125
 SCF integral mode      SCFMode         .... Direct
   Integral package                     .... SHARK and LIBINT hybrid scheme
 Reset frequency        DirectResetFreq ....    20
 Integral Threshold     Thresh          ....  2.500e-11 Eh
 Primitive CutOff       TCut            ....  2.500e-12 Eh

Convergence Tolerance:
 Convergence Check Mode ConvCheckMode   .... Total+1el-Energy
 Convergence forced     ConvForced      .... 0
 Energy Change          TolE            ....  1.000e-08 Eh
 1-El. energy change                    ....  1.000e-05 Eh
 DIIS Error             TolErr          ....  5.000e-07


Diagonalization of the overlap matrix:
Smallest eigenvalue                        ... 7.917e-06
Time for diagonalization                   ...    0.068 sec
Threshold for overlap eigenvalues          ... 1.000e-08
Number of eigenvalues below threshold      ... 0
Time for construction of square roots      ...    0.045 sec
Total time needed                          ...    0.115 sec

Time for model grid setup =    0.289 sec

------------------------------
INITIAL GUESS: MODEL POTENTIAL
------------------------------
Loading Hartree-Fock densities                     ... done
Calculating cut-offs                               ... done
Initializing the effective Hamiltonian             ... done
Setting up the integral package (SHARK)            ... done
Starting the Coulomb interaction                   ... done (   0.2 sec)
Reading the grid                                   ... done
Mapping shells                                     ... done
Starting the XC term evaluation                    ... done (   0.2 sec)
  promolecular density results
     # of electrons  =    140.004184155
     EX              =   -198.051982910
     EC              =     -5.471815145
     EX+EC           =   -203.523798055
Transforming the Hamiltonian                       ... done (   0.0 sec)
Diagonalizing the Hamiltonian                      ... done (   0.1 sec)
Back transforming the eigenvectors                 ... done (   0.0 sec)
Now organizing SCF variables                       ... done
                      ------------------
                      INITIAL GUESS DONE (   0.8 sec)
                      ------------------
-------------------
DFT GRID GENERATION
-------------------

General Integration Accuracy     IntAcc      ... 4.388
Radial Grid Type                 RadialGrid  ... OptM3 with GC (2021)
Angular Grid (max. ang.)         AngularGrid ... 4 (Lebedev-302)
Angular grid pruning method      GridPruning ... 4 (adaptive)
Weight generation scheme         WeightScheme... Becke
Basis function cutoff            BFCut       ... 1.0000e-11
Integration weight cutoff        WCut        ... 1.0000e-14
Angular grids for H and He will be reduced by one unit
Partially contracted basis set               ... off
Rotationally invariant grid construction     ... off

Total number of grid points                  ...   123007
Total number of batches                      ...     1932
Average number of points per batch           ...       63
Average number of grid points per atom       ...     5125
Time for grid setup =    0.901 sec

--------------
SCF ITERATIONS
--------------
ITER       Energy         Delta-E        Max-DP      RMS-DP      [F,P]     Damp
               ***  Starting incremental Fock matrix formation  ***
  0  -3796.4843648492   0.000000000000 0.35571576  0.00224930  0.2137131 0.7000
  1  -3796.6582731101  -0.173908260872 0.33814427  0.00202812  0.0813803 0.7000
                               ***Turning on DIIS***
  2  -3796.7204182620  -0.062145151923 0.42150516  0.00288977  0.0501664 0.0000
  3  -3796.8181146485  -0.097696386448 0.09125931  0.00054317  0.1273148 0.7000
  4  -3796.8338639553  -0.015749306859 0.33092243  0.00199451  0.0922354 0.0000
  5  -3796.8575224713  -0.023658515989 0.03081871  0.00025875  0.0116316 0.0000
  6  -3796.8584616724  -0.000939201044 0.00918059  0.00008329  0.0038764 0.0000
  7  -3796.8585118094  -0.000050137079 0.00649297  0.00003817  0.0038906 0.0000
  8  -3796.8585123650  -0.000000555586 0.00225836  0.00002358  0.0040697 0.0000
  9  -3796.8585379888  -0.000025623805 0.00295593  0.00002579  0.0009963 0.0000
 10  -3796.8585392933  -0.000001304476 0.00147231  0.00000851  0.0007307 0.0000
 11  -3796.8585404303  -0.000001137031 0.00058416  0.00000433  0.0001083 0.0000
 12  -3796.8585405478  -0.000000117426 0.00015915  0.00000126  0.0000740 0.0000
 13  -3796.8585405727  -0.000000024927 0.00016534  0.00000120  0.0000323 0.0000
 14  -3796.8585405721   0.000000000608 0.00002546  0.00000045  0.0000258 0.0000
 15  -3796.8585405902  -0.000000018131 0.00013601  0.00000087  0.0000187 0.0000
 16  -3796.8585405849   0.000000005271 0.00021260  0.00000142  0.0000122 0.0000
 17  -3796.8585405640   0.000000020960 0.00005913  0.00000040  0.0000082 0.0000
 18  -3796.8585405691  -0.000000005091 0.00010376  0.00000063  0.0000022 0.0000
 19  -3796.8585405745  -0.000000005440 0.00050388  0.00000367  0.0000016 0.0000
               *** Restarting incremental Fock matrix formation ***
                                   *** Resetting DIIS ***
                            ***DIIS convergence achieved***

               *****************************************************
               *                     SUCCESS                       *
               *           SCF CONVERGED AFTER  20 CYCLES          *
               *****************************************************


----------------
TOTAL SCF ENERGY
----------------

Total Energy       :        -3796.85854061 Eh         -103317.77346 eV

Components:
Nuclear Repulsion  :         1446.68874828 Eh           39366.40219 eV
Electronic Energy  :        -5243.54728889 Eh         -142684.17565 eV
One Electron Energy:        -8158.75185222 Eh         -222010.92472 eV
Two Electron Energy:         2915.20456333 Eh           79326.74906 eV

Virial components:
Potential Energy   :        -7586.57885784 Eh         -206441.30600 eV
Kinetic Energy     :         3789.72031723 Eh          103123.53253 eV
Virial Ratio       :            2.00188358


DFT components:
N(Alpha)           :       70.000128961420 electrons
N(Beta)            :       70.000128961420 electrons
N(Total)           :      140.000257922840 electrons
E(X)               :     -199.397207470469 Eh       
E(C)               :       -5.480232398471 Eh       
E(XC)              :     -204.877439868940 Eh       
DFET-embed. en.    :        0.000000000000 Eh       

---------------
SCF CONVERGENCE
---------------

  Last Energy change         ...   -3.4836e-08  Tolerance :   1.0000e-08
  Last MAX-Density change    ...    1.2302e-03  Tolerance :   1.0000e-07
  Last RMS-Density change    ...    8.3655e-06  Tolerance :   5.0000e-09
  Last DIIS Error            ...    8.9863e-07  Tolerance :   5.0000e-07

             **** THE GBW FILE WAS UPDATED (neutral.gbw) ****
             **** DENSITY neutral.scfp WAS UPDATED ****
             **** ENERGY FILE WAS UPDATED (neutral.en.tmp) ****
             **** THE GBW FILE WAS UPDATED (neutral.gbw) ****
             **** DENSITY neutral.scfp WAS UPDATED ****
----------------
ORBITAL ENERGIES
----------------

  NO   OCC          E(Eh)            E(eV) 
   0   2.0000    -321.484577     -8748.0401 
   1   2.0000    -321.467591     -8747.5779 
   2   2.0000     -38.253930     -1040.9424 
   3   2.0000     -38.235334     -1040.4363 
   4   2.0000     -33.545192      -912.8111 
   5   2.0000     -33.544509      -912.7925 
   6   2.0000     -33.544467      -912.7914 
   7   2.0000     -33.526578      -912.3046 
   8   2.0000     -33.526074      -912.2909 
   9   2.0000     -33.526007      -912.2890 
  10   2.0000     -18.776470      -510.9337 
  11   2.0000     -18.774254      -510.8734 
  12   2.0000     -14.042225      -382.1084 
  13   2.0000      -9.943594      -270.5790 
  14   2.0000      -9.940434      -270.4930 
  15   2.0000      -9.940059      -270.4828 
  16   2.0000      -9.904760      -269.5222 
  17   2.0000      -9.896642      -269.3013 
  18   2.0000      -9.889042      -269.0945 
  19   2.0000      -9.888242      -269.0727 
  20   2.0000      -9.886734      -269.0317 
  21   2.0000      -4.083825      -111.1265 
  22   2.0000      -4.063779      -110.5811 
  23   2.0000      -2.620971       -71.3202 
  24   2.0000      -2.618157       -71.2437 
  25   2.0000      -2.617056       -71.2137 
  26   2.0000      -2.601845       -70.7998 
  27   2.0000      -2.598450       -70.7074 
  28   2.0000      -2.595543       -70.6283 
  29   2.0000      -0.980088       -26.6695 
  30   2.0000      -0.951474       -25.8909 
  31   2.0000      -0.862322       -23.4650 
  32   2.0000      -0.780035       -21.2258 
  33   2.0000      -0.716678       -19.5018 
  34   2.0000      -0.673593       -18.3294 
  35   2.0000      -0.655035       -17.8244 
  36   2.0000      -0.584818       -15.9137 
  37   2.0000      -0.572733       -15.5849 
  38   2.0000      -0.529037       -14.3958 
  39   2.0000      -0.497881       -13.5480 
  40   2.0000      -0.494817       -13.4647 
  41   2.0000      -0.483921       -13.1682 
  42   2.0000      -0.453055       -12.3283 
  43   2.0000      -0.433811       -11.8046 
  44   2.0000      -0.423285       -11.5182 
  45   2.0000      -0.392775       -10.6880 
  46   2.0000      -0.386425       -10.5152 
  47   2.0000      -0.380440       -10.3523 
  48   2.0000      -0.371397       -10.1062 
  49   2.0000      -0.360610        -9.8127 
  50   2.0000      -0.350507        -9.5378 
  51   2.0000      -0.335927        -9.1410 
  52   2.0000      -0.320011        -8.7079 
  53   2.0000      -0.309747        -8.4286 
  54   2.0000      -0.301972        -8.2171 
  55   2.0000      -0.298502        -8.1227 
  56   2.0000      -0.281600        -7.6627 
  57   2.0000      -0.227423        -6.1885 
  58   2.0000      -0.204014        -5.5515 
  59   2.0000      -0.201038        -5.4705 
  60   2.0000      -0.199222        -5.4211 
  61   2.0000      -0.190343        -5.1795 
  62   2.0000      -0.189069        -5.1448 
  63   2.0000      -0.187893        -5.1128 
  64   2.0000      -0.173228        -4.7138 
  65   2.0000      -0.169739        -4.6188 
  66   2.0000      -0.169277        -4.6063 
  67   2.0000      -0.166522        -4.5313 
  68   2.0000      -0.165654        -4.5077 
  69   2.0000      -0.160874        -4.3776 
  70   0.0000      -0.064829        -1.7641 
  71   0.0000      -0.051330        -1.3968 
  72   0.0000      -0.032843        -0.8937 
  73   0.0000      -0.017636        -0.4799 
  74   0.0000      -0.010234        -0.2785 
  75   0.0000      -0.009396        -0.2557 
  76   0.0000       0.022350         0.6082 
  77   0.0000       0.027983         0.7614 
  78   0.0000       0.035549         0.9673 
  79   0.0000       0.043459         1.1826 
  80   0.0000       0.051415         1.3991 
  81   0.0000       0.059795         1.6271 
  82   0.0000       0.068690         1.8691 
  83   0.0000       0.074060         2.0153 
  84   0.0000       0.083784         2.2799 
  85   0.0000       0.092551         2.5185 
  86   0.0000       0.095071         2.5870 
  87   0.0000       0.099233         2.7003 
  88   0.0000       0.110265         3.0005 
  89   0.0000       0.120253         3.2722 
  90   0.0000       0.122600         3.3361 
  91   0.0000       0.126476         3.4416 
  92   0.0000       0.145504         3.9594 
  93   0.0000       0.149168         4.0591 
  94   0.0000       0.157500         4.2858 
  95   0.0000       0.162984         4.4350 
  96   0.0000       0.169968         4.6251 
  97   0.0000       0.176241         4.7958 
  98   0.0000       0.180111         4.9011 
  99   0.0000       0.190167         5.1747 
 100   0.0000       0.200727         5.4621 
 101   0.0000       0.203799         5.5456 
 102   0.0000       0.215767         5.8713 
 103   0.0000       0.216478         5.8907 
 104   0.0000       0.220224         5.9926 
 105   0.0000       0.228937         6.2297 
 106   0.0000       0.233576         6.3559 
 107   0.0000       0.239161         6.5079 
 108   0.0000       0.244824         6.6620 
 109   0.0000       0.253871         6.9082 
 110   0.0000       0.265127         7.2145 
 111   0.0000       0.272077         7.4036 
 112   0.0000       0.277212         7.5433 
 113   0.0000       0.283123         7.7042 
 114   0.0000       0.291719         7.9381 
 115   0.0000       0.298344         8.1184 
 116   0.0000       0.305231         8.3058 
 117   0.0000       0.306117         8.3299 
 118   0.0000       0.318706         8.6724 
 119   0.0000       0.319782         8.7017 
 120   0.0000       0.324992         8.8435 
 121   0.0000       0.338272         9.2049 
 122   0.0000       0.341070         9.2810 
 123   0.0000       0.345935         9.4134 
 124   0.0000       0.354644         9.6504 
 125   0.0000       0.363640         9.8951 
 126   0.0000       0.368291        10.0217 
 127   0.0000       0.373740        10.1700 
 128   0.0000       0.376879        10.2554 
 129   0.0000       0.381667        10.3857 
 130   0.0000       0.390285        10.6202 
 131   0.0000       0.396784        10.7971 
 132   0.0000       0.399480        10.8704 
 133   0.0000       0.401964        10.9380 
 134   0.0000       0.411807        11.2059 
 135   0.0000       0.415267        11.3000 
 136   0.0000       0.429458        11.6861 
 137   0.0000       0.433327        11.7914 
 138   0.0000       0.437659        11.9093 
 139   0.0000       0.449297        12.2260 
 140   0.0000       0.453306        12.3351 
 141   0.0000       0.470651        12.8071 
 142   0.0000       0.472630        12.8609 
 143   0.0000       0.483483        13.1562 
 144   0.0000       0.484966        13.1966 
 145   0.0000       0.504820        13.7369 
 146   0.0000       0.506487        13.7822 
 147   0.0000       0.520328        14.1588 
 148   0.0000       0.536356        14.5950 
 149   0.0000       0.540656        14.7120 
 150   0.0000       0.559748        15.2315 
 151   0.0000       0.562519        15.3069 
 152   0.0000       0.568700        15.4751 
 153   0.0000       0.594695        16.1825 
 154   0.0000       0.600559        16.3421 
 155   0.0000       0.604193        16.4409 
 156   0.0000       0.613144        16.6845 
 157   0.0000       0.623852        16.9759 
 158   0.0000       0.633923        17.2499 
 159   0.0000       0.648351        17.6425 
 160   0.0000       0.656187        17.8558 
 161   0.0000       0.668131        18.1808 
 162   0.0000       0.673869        18.3369 
 163   0.0000       0.692716        18.8498 
 164   0.0000       0.701869        19.0988 
 165   0.0000       0.710851        19.3432 
 166   0.0000       0.730289        19.8722 
 167   0.0000       0.751978        20.4624 
 168   0.0000       0.768819        20.9206 
 169   0.0000       0.772248        21.0139 
 170   0.0000       0.783819        21.3288 
 171   0.0000       0.789529        21.4842 
 172   0.0000       0.797781        21.7087 
 173   0.0000       0.802976        21.8501 
 174   0.0000       0.813153        22.1270 
 175   0.0000       0.823299        22.4031 
 176   0.0000       0.825240        22.4559 
 177   0.0000       0.842037        22.9130 
 178   0.0000       0.842797        22.9337 
 179   0.0000       0.858058        23.3490 
 180   0.0000       0.872172        23.7330 
 181   0.0000       0.885576        24.0977 
 182   0.0000       0.888912        24.1885 
 183   0.0000       0.914832        24.8938 
 184   0.0000       0.924468        25.1560 
 185   0.0000       0.932821        25.3833 
 186   0.0000       0.936917        25.4948 
 187   0.0000       0.942912        25.6579 
 188   0.0000       0.947485        25.7824 
 189   0.0000       0.985142        26.8071 
 190   0.0000       1.001427        27.2502 
 191   0.0000       1.010310        27.4919 
 192   0.0000       1.024680        27.8829 
 193   0.0000       1.028629        27.9904 
 194   0.0000       1.042429        28.3659 
 195   0.0000       1.062709        28.9178 
 196   0.0000       1.067176        29.0393 
 197   0.0000       1.072660        29.1886 
 198   0.0000       1.086360        29.5614 
 199   0.0000       1.099254        29.9122 
 200   0.0000       1.105352        30.0782 
 201   0.0000       1.139369        31.0038 
 202   0.0000       1.152288        31.3554 
 203   0.0000       1.167178        31.7605 
 204   0.0000       1.172417        31.9031 
 205   0.0000       1.188764        32.3479 
 206   0.0000       1.195028        32.5184 
 207   0.0000       1.211943        32.9787 
 208   0.0000       1.220358        33.2076 
 209   0.0000       1.250428        34.0259 
 210   0.0000       1.263527        34.3823 
 211   0.0000       1.282295        34.8930 
 212   0.0000       1.293079        35.1865 
 213   0.0000       1.313815        35.7507 
 214   0.0000       1.315338        35.7922 
 215   0.0000       1.335015        36.3276 
 216   0.0000       1.346669        36.6447 
 217   0.0000       1.351727        36.7823 
 218   0.0000       1.382252        37.6130 
 219   0.0000       1.392466        37.8909 
 220   0.0000       1.395377        37.9701 
 221   0.0000       1.420354        38.6498 
 222   0.0000       1.431255        38.9464 
 223   0.0000       1.445310        39.3289 
 224   0.0000       1.482709        40.3466 
 225   0.0000       1.490611        40.5616 
 226   0.0000       1.500013        40.8174 
 227   0.0000       1.502793        40.8931 
 228   0.0000       1.511276        41.1239 
 229   0.0000       1.530818        41.6557 
 230   0.0000       1.542655        41.9778 
 231   0.0000       1.556152        42.3450 
 232   0.0000       1.565570        42.6013 
 233   0.0000       1.571479        42.7621 
 234   0.0000       1.597120        43.4598 
 235   0.0000       1.609803        43.8050 
 236   0.0000       1.635207        44.4962 
 237   0.0000       1.647111        44.8202 
 238   0.0000       1.654258        45.0147 
 239   0.0000       1.664246        45.2864 
 240   0.0000       1.684357        45.8337 
 241   0.0000       1.710330        46.5404 
 242   0.0000       1.718098        46.7518 
 243   0.0000       1.734798        47.2062 
 244   0.0000       1.742899        47.4267 
 245   0.0000       1.761180        47.9242 
 246   0.0000       1.773360        48.2556 
 247   0.0000       1.783359        48.5277 
 248   0.0000       1.798154        48.9303 
 249   0.0000       1.803755        49.0827 
 250   0.0000       1.822301        49.5873 
 251   0.0000       1.832850        49.8744 
 252   0.0000       1.857145        50.5355 
 253   0.0000       1.881846        51.2076 
 254   0.0000       1.883795        51.2607 
 255   0.0000       1.886428        51.3323 
 256   0.0000       1.908765        51.9401 
 257   0.0000       1.916671        52.1553 
 258   0.0000       1.925679        52.4004 
 259   0.0000       1.940835        52.8128 
 260   0.0000       1.966989        53.5245 
 261   0.0000       1.993080        54.2345 
 262   0.0000       1.999741        54.4157 
 263   0.0000       2.011624        54.7391 
 264   0.0000       2.027428        55.1691 
 265   0.0000       2.057489        55.9871 
 266   0.0000       2.073606        56.4257 
 267   0.0000       2.081921        56.6519 
 268   0.0000       2.097252        57.0691 
 269   0.0000       2.112557        57.4856 
 270   0.0000       2.121372        57.7255 
 271   0.0000       2.136520        58.1377 
 272   0.0000       2.144032        58.3421 
 273   0.0000       2.152673        58.5772 
 274   0.0000       2.182209        59.3809 
 275   0.0000       2.200567        59.8805 
 276   0.0000       2.209431        60.1217 
 277   0.0000       2.233431        60.7748 
 278   0.0000       2.239897        60.9507 
 279   0.0000       2.250094        61.2282 
 280   0.0000       2.267727        61.7080 
 281   0.0000       2.274337        61.8878 
 282   0.0000       2.296786        62.4987 
 283   0.0000       2.300552        62.6012 
 284   0.0000       2.326804        63.3156 
 285   0.0000       2.330420        63.4139 
 286   0.0000       2.339867        63.6710 
 287   0.0000       2.362383        64.2837 
 288   0.0000       2.380073        64.7651 
 289   0.0000       2.400639        65.3247 
 290   0.0000       2.407952        65.5237 
 291   0.0000       2.421888        65.9029 
 292   0.0000       2.438379        66.3517 
 293   0.0000       2.443342        66.4867 
 294   0.0000       2.464947        67.0746 
 295   0.0000       2.476395        67.3861 
 296   0.0000       2.495177        67.8972 
 297   0.0000       2.500557        68.0436 
 298   0.0000       2.514069        68.4113 
 299   0.0000       2.537177        69.0401 
 300   0.0000       2.546642        69.2976 
 301   0.0000       2.561611        69.7050 
 302   0.0000       2.571161        69.9649 
 303   0.0000       2.585785        70.3628 
 304   0.0000       2.597514        70.6819 
 305   0.0000       2.610809        71.0437 
 306   0.0000       2.618494        71.2529 
 307   0.0000       2.629200        71.5442 
 308   0.0000       2.636132        71.7328 
 309   0.0000       2.649907        72.1076 
 310   0.0000       2.662116        72.4399 
 311   0.0000       2.673903        72.7606 
 312   0.0000       2.707375        73.6714 
 313   0.0000       2.716012        73.9064 
 314   0.0000       2.729968        74.2862 
 315   0.0000       2.735665        74.4412 
 316   0.0000       2.762516        75.1719 
 317   0.0000       2.771672        75.4210 
 318   0.0000       2.781025        75.6755 
 319   0.0000       2.793053        76.0028 
 320   0.0000       2.799356        76.1744 
 321   0.0000       2.820603        76.7525 
 322   0.0000       2.838446        77.2380 
 323   0.0000       2.848124        77.5014 
 324   0.0000       2.861276        77.8593 
 325   0.0000       2.876124        78.2633 
 326   0.0000       2.894214        78.7556 
 327   0.0000       2.910991        79.2121 
 328   0.0000       2.927257        79.6547 
 329   0.0000       2.949442        80.2584 
 330   0.0000       2.960148        80.5497 
 331   0.0000       2.968537        80.7780 
 332   0.0000       2.995606        81.5146 
 333   0.0000       2.999225        81.6131 
 334   0.0000       3.013215        81.9937 
 335   0.0000       3.026126        82.3451 
 336   0.0000       3.031845        82.5007 
 337   0.0000       3.046475        82.8988 
 338   0.0000       3.057763        83.2060 
 339   0.0000       3.067096        83.4599 
 340   0.0000       3.093368        84.1748 
 341   0.0000       3.106137        84.5223 
 342   0.0000       3.110317        84.6360 
 343   0.0000       3.124526        85.0227 
 344   0.0000       3.141379        85.4813 
 345   0.0000       3.149202        85.6942 
 346   0.0000       3.157913        85.9312 
 347   0.0000       3.179575        86.5206 
 348   0.0000       3.189042        86.7782 
 349   0.0000       3.191492        86.8449 
 350   0.0000       3.208095        87.2967 
 351   0.0000       3.217569        87.5545 
 352   0.0000       3.230070        87.8947 
 353   0.0000       3.242535        88.2339 
 354   0.0000       3.257233        88.6338 
 355   0.0000       3.267759        88.9202 
 356   0.0000       3.280654        89.2711 
 357   0.0000       3.302615        89.8687 
 358   0.0000       3.313542        90.1661 
 359   0.0000       3.326878        90.5289 
 360   0.0000       3.335220        90.7560 
 361   0.0000       3.343465        90.9803 
 362   0.0000       3.355335        91.3033 
 363   0.0000       3.366857        91.6168 
 364   0.0000       3.378105        91.9229 
 365   0.0000       3.397517        92.4511 
 366   0.0000       3.412843        92.8682 
 367   0.0000       3.425412        93.2102 
 368   0.0000       3.450300        93.8874 
 369   0.0000       3.462270        94.2132 
 370   0.0000       3.489886        94.9646 
 371   0.0000       3.517626        95.7195 
 372   0.0000       3.533262        96.1449 
 373   0.0000       3.552618        96.6717 
 374   0.0000       3.562095        96.9295 
 375   0.0000       3.592847        97.7663 
 376   0.0000       3.596155        97.8563 
 377   0.0000       3.602673        98.0337 
 378   0.0000       3.609564        98.2212 
 379   0.0000       3.617785        98.4449 
 380   0.0000       3.627022        98.6963 
 381   0.0000       3.641672        99.0949 
 382   0.0000       3.657603        99.5284 
 383   0.0000       3.672428        99.9318 
 384   0.0000       3.689249       100.3896 
 385   0.0000       3.692568       100.4799 
 386   0.0000       3.716686       101.1362 
 387   0.0000       3.722032       101.2816 
 388   0.0000       3.726974       101.4161 
 389   0.0000       3.783348       102.9501 
 390   0.0000       3.794843       103.2629 
 391   0.0000       3.801418       103.4418 
 392   0.0000       3.820780       103.9687 
 393   0.0000       3.833209       104.3069 
 394   0.0000       3.860928       105.0612 
 395   0.0000       3.866307       105.2076 
 396   0.0000       3.900409       106.1355 
 397   0.0000       3.910388       106.4071 
 398   0.0000       3.916886       106.5839 
 399   0.0000       3.942625       107.2843 
 400   0.0000       3.972449       108.0958 
 401   0.0000       3.997324       108.7727 
 402   0.0000       4.001464       108.8854 
 403   0.0000       4.039715       109.9262 
 404   0.0000       4.073725       110.8517 
 405   0.0000       4.083364       111.1140 
 406   0.0000       4.101212       111.5997 
 407   0.0000       4.116751       112.0225 
 408   0.0000       4.138885       112.6248 
 409   0.0000       4.150979       112.9539 
 410   0.0000       4.184267       113.8597 
 411   0.0000       4.190516       114.0298 
 412   0.0000       4.207742       114.4985 
[...]
      0       0.035532   0.026102   0.001967   0.004698   0.000081  -0.000186
      1       0.006707   0.005406  -0.000009   0.000873   0.000057   0.000078
      2      -0.000594  -0.000506   0.000006  -0.000079  -0.000005  -0.000005
      3       0.004719   0.007398  -0.001671   0.000866  -0.000161   0.000309
      4      -0.004228  -0.006276   0.001080  -0.000842  -0.000218  -0.000230
      5       0.001438   0.001741  -0.000175   0.000232   0.000010  -0.000025
      6       0.019619  -0.049171   0.018841  -0.002976  -0.001417  -0.000361
      7       0.023957  -0.049186   0.019670  -0.004670  -0.001498  -0.000006
      8      -0.005215   0.014730  -0.004350   0.001322   0.000465  -0.000394
      9       0.001430  -0.000918   0.001257  -0.002883  -0.001831  -0.000169
     10      -0.002542   0.000962  -0.001305  -0.000141  -0.001048   0.000229
     11      -0.000068  -0.000240   0.000118  -0.000069   0.000395   0.000197
     12      -0.001031  -0.000133   0.001883  -0.000082  -0.000007   0.000366
     13      -0.012252   0.003780   0.017784   0.002492   0.000304  -0.000276
     14       0.006114  -0.001455  -0.009318  -0.001014  -0.000133  -0.000278
     15       0.002182  -0.005922  -0.018092  -0.000330   0.000045   0.001054
     16      -0.030399   0.014200   0.062688   0.001448   0.000100   0.000113
     17       0.021593  -0.010626  -0.044669  -0.001017  -0.000050  -0.000331
     18      -0.026789  -0.008537  -0.019520  -0.000364  -0.000067   0.025968
     19       0.018961   0.006613   0.013973   0.000362   0.000042   0.042124
     20      -0.018345  -0.006089  -0.013728  -0.000221  -0.000022   0.052816
     21      -0.018205  -0.006080  -0.013074  -0.000187   0.000023  -0.313649
     22      -0.038975  -0.013844  -0.027749  -0.001080  -0.000067  -0.631866
     23      -0.045091  -0.014780  -0.031170  -0.001008  -0.000048  -0.699473
     24       0.013797   0.000387   0.004322  -0.000132   0.000324   0.002513
     25       0.027364   0.006612   0.019698   0.000218   0.000149  -0.002983
     26      -0.019858  -0.004053  -0.009776  -0.000183  -0.000217   0.014567
     27       0.381997   0.125015   0.288578   0.005438   0.000660  -0.055353
     28      -0.257683  -0.088797  -0.192467  -0.004551  -0.000656   0.054210
     29       0.305872   0.101149   0.219378   0.004028   0.000596  -0.039396
     30      -0.000646   0.002935   0.000083  -0.022143  -0.011017  -0.000138
     31      -0.000713  -0.007512  -0.000463   0.075014   0.029739  -0.000122
     32      -0.000050   0.000799  -0.000047  -0.009048  -0.003441  -0.000005
     33       0.002569   0.001682   0.000505  -0.018172   0.052799   0.000056
     34      -0.000208   0.000278   0.000533  -0.023333   0.059940  -0.000073
     35       0.000465   0.000399  -0.000035  -0.001295   0.003746  -0.000007
     36      -0.004846  -0.002639  -0.000580  -0.000875   0.001940   0.000091
     37       0.002048   0.002330  -0.000310   0.000098  -0.002257   0.000127
     38      -0.000740  -0.000687   0.000032  -0.000189   0.000817  -0.000017
     39       0.002067   0.001056   0.000266   0.000175  -0.000343  -0.000039
     40      -0.002655  -0.001915  -0.000106  -0.000195   0.000251  -0.000018
     41       0.000627   0.000437   0.000032   0.000059  -0.000097   0.000004
     42      -0.615321  -0.459961  -0.029640  -0.081490  -0.000934   0.002284
     43      -0.031257  -0.023141  -0.002062  -0.005063   0.000232   0.000345
     44      -0.009989  -0.008068  -0.000007  -0.001097  -0.000211  -0.000052
     45      -0.235574   0.555392  -0.208035   0.041748   0.015806  -0.000271
     46      -0.256905   0.597082  -0.225639   0.046397   0.017864  -0.000358
     47       0.070343  -0.176661   0.062843  -0.012979  -0.004977   0.001123
     48       0.027420  -0.002743  -0.048988  -0.001017   0.001052   0.000635
     49       0.006431  -0.001843  -0.012814  -0.000998   0.000118  -0.000147
     50      -0.038982   0.005696   0.063209   0.003423  -0.000224  -0.001377
     51      -0.016387   0.005415   0.020021   0.007122   0.001549  -0.000131
     52       0.142915  -0.045741  -0.197871  -0.030827  -0.003747   0.000373
     53      -0.036110   0.010902   0.048091   0.008736   0.001280   0.000265
     54       0.132090  -0.043563  -0.223704  -0.005611  -0.000731  -0.003882
     55       0.246303  -0.083170  -0.420542  -0.010997  -0.001404  -0.005906
     56      -0.103632   0.034263   0.172858   0.003971   0.000550   0.001986
     57      -0.165519   0.112650   0.429186   0.010268   0.000458  -0.003567
     58       0.121000  -0.083739  -0.319856  -0.007315  -0.000138   0.002301
     59      -0.147487   0.093919   0.360675   0.008942   0.000403  -0.001608
     60      -0.002293  -0.030437  -0.002279   0.278566   0.112149  -0.000146
     61       0.014093   0.094149   0.006600  -0.873716  -0.338421   0.000290
     62      -0.001427  -0.010518  -0.000796   0.099961   0.038298   0.000012
     63      -0.011115  -0.011023  -0.005726   0.233681  -0.610112  -0.000102
     64      -0.009438  -0.010762  -0.005936   0.272925  -0.698543  -0.000201
     65      -0.001201  -0.001512  -0.000140   0.021985  -0.056377  -0.000067
     66      -0.000010  -0.000002  -0.000014   0.000006   0.000002  -0.000011
     67      -0.000012  -0.000005  -0.000015  -0.000008  -0.000003   0.000001
     68       0.000004   0.000006   0.000007  -0.000002  -0.000002   0.000015
     69      -0.000011  -0.000001  -0.000008  -0.000093   0.000062   0.000011
     70      -0.000015  -0.000003  -0.000008   0.000050   0.000092   0.000007
     71       0.000019  -0.000008   0.000016  -0.000004   0.000022  -0.000008


-----------
IR SPECTRUM
-----------

 Mode   freq       eps      Int      T**2         TX        TY        TZ
       cm**-1   L/(mol*cm) km/mol    a.u.
----------------------------------------------------------------------------
  6:     39.45   0.000306    1.55  0.002423  ( 0.035076 -0.018933 -0.028877)
  7:     65.02   0.000175    0.88  0.000839  (-0.027944 -0.003629 -0.006735)
  8:     75.72   0.000153    0.77  0.000631  (-0.013705  0.002004  0.020956)
  9:     84.70   0.001222    6.17  0.004502  (-0.058206  0.008125 -0.032371)
 10:     97.05   0.000288    1.45  0.000924  ( 0.005225 -0.020938  0.021419)
 11:     99.50   0.000277    1.40  0.000870  ( 0.028141  0.002100 -0.008599)
 12:    139.75   0.000532    2.69  0.001188  (-0.026881  0.016776 -0.013553)
 13:    166.20   0.002830   14.30  0.005314  ( 0.056674  0.037042 -0.027015)
 14:    222.59   0.000443    2.24  0.000621  ( 0.015255  0.006002 -0.018771)
 15:    269.01   0.002115   10.69  0.002453  (-0.010407  0.019913 -0.044137)
 16:    288.61   0.003647   18.43  0.003943  (-0.039410 -0.015139 -0.046485)
 17:    302.50   0.001632    8.25  0.001684  ( 0.009149 -0.016356  0.036505)
 18:    317.88   0.003597   18.18  0.003531  ( 0.011734  0.058116  0.003939)
 19:    330.31   0.001607    8.12  0.001518  (-0.014573  0.019999 -0.030096)
 20:    370.20   0.000903    4.56  0.000761  ( 0.000033  0.020596  0.018360)
 21:    413.68   0.000324    1.64  0.000244  (-0.006170  0.009855 -0.010436)
 22:    447.76   0.000379    1.91  0.000264  ( 0.005172 -0.014835 -0.004151)
 23:    473.89   0.000080    0.40  0.000053  (-0.000183  0.007218 -0.000679)
 24:    535.88   0.002611   13.19  0.001520  (-0.027907  0.011811 -0.024536)
 25:    586.80   0.000170    0.86  0.000091  (-0.009097 -0.001995  0.001978)
 26:    629.17   0.003794   19.17  0.001882  ( 0.026613 -0.003180 -0.034105)
 27:    698.38   0.001640    8.29  0.000733  ( 0.019144  0.001925  0.019044)
 28:    731.73   0.000062    0.31  0.000026  (-0.002500  0.004472  0.000168)
 29:    778.50   0.000514    2.60  0.000206  ( 0.001123  0.002108  0.014158)
 30:    782.10   0.000771    3.90  0.000308  (-0.013520  0.009472  0.005941)
 31:    807.54   0.003397   17.17  0.001313  ( 0.013517 -0.016762  0.029136)
 32:    828.19   0.006602   33.36  0.002488  (-0.019235  0.002286 -0.045961)
 33:    836.07   0.003830   19.35  0.001430  (-0.006014 -0.022336 -0.029907)
 34:    846.88   0.012165   61.48  0.004483  ( 0.003567 -0.008000 -0.066377)
 35:    859.06   0.002230   11.27  0.000810  ( 0.005247 -0.002449  0.027867)
 36:    902.02   0.000180    0.91  0.000062  (-0.005005  0.002844  0.005399)
 37:    930.83   0.005676   28.69  0.001903  ( 0.003654  0.038350 -0.020469)
 38:    995.57   0.000686    3.47  0.000215  (-0.011410  0.007117  0.005843)
 39:   1047.03   0.000857    4.33  0.000256  (-0.012810 -0.003519  0.008889)
 40:   1057.77   0.003072   15.53  0.000906  ( 0.023583  0.002573  0.018537)
 41:   1081.61   0.000692    3.50  0.000200  ( 0.010515  0.007866  0.005206)
 42:   1141.85   0.002471   12.49  0.000675  ( 0.002206  0.021008 -0.015135)
 43:   1181.80   0.000149    0.75  0.000039  ( 0.003316  0.003487  0.004020)
 44:   1211.12   0.001610    8.14  0.000415  (-0.011240 -0.005669  0.016015)
 45:   1235.45   0.002202   11.13  0.000556  (-0.020638 -0.001348 -0.011335)
 46:   1257.69   0.007127   36.02  0.001768  (-0.028917  0.027578 -0.013101)
 47:   1275.81   0.020632  104.27  0.005047  (-0.010128  0.055577 -0.043073)
 48:   1302.93   0.033378  168.68  0.007994  ( 0.064210 -0.056252  0.026590)
 49:   1320.84   0.003739   18.90  0.000883  ( 0.009066 -0.018628  0.021312)
 50:   1340.03   0.002676   13.53  0.000623  (-0.001836  0.014274 -0.020400)
 51:   1369.34   0.031915  161.28  0.007273  ( 0.037623 -0.068020  0.035085)
 52:   1425.72   0.015050   76.06  0.003294  ( 0.039856 -0.003419 -0.041158)
 53:   1434.59   0.003727   18.84  0.000811  (-0.005993  0.026544 -0.008386)
 54:   1453.55   0.003878   19.60  0.000832  ( 0.020410 -0.016303  0.012254)
 55:   1456.05   0.037276  188.38  0.007989  ( 0.028591 -0.067321  0.051376)
 56:   1502.15   0.013400   67.72  0.002784  ( 0.027455 -0.043698  0.010973)
 57:   1509.09   0.007594   38.38  0.001570  ( 0.035278  0.009889  0.015104)
 58:   1536.61   0.015518   78.42  0.003151  ( 0.030460  0.047142 -0.001088)
 59:   1574.62   0.026482  133.83  0.005248  (-0.070365 -0.000635 -0.017226)
 60:   1595.85   0.036027  182.07  0.007045  (-0.070855  0.027403 -0.035689)
 61:   2351.28   0.192866  974.67  0.025597  (-0.111029 -0.069066  0.092195)
 62:   2955.12   0.010268   51.89  0.001084  ( 0.028590 -0.006115 -0.015151)
 63:   3006.32   0.007626   38.54  0.000792  (-0.026361 -0.003568 -0.009164)
 64:   3023.04   0.002031   10.27  0.000210  ( 0.010432  0.009645  0.002803)
 65:   3045.19   0.048842  246.83  0.005005  (-0.061813 -0.004577 -0.034109)
 66:   3052.31   0.007070   35.73  0.000723  ( 0.003733 -0.011054  0.024221)
 67:   3059.15   0.009821   49.63  0.001002  (-0.022938 -0.018574  0.011434)
 68:   3062.26   0.004469   22.58  0.000455  ( 0.015223  0.009875  0.011232)
 69:   3074.73   0.001412    7.14  0.000143  (-0.011483  0.003222  0.001045)
 70:   3093.27   0.000524    2.65  0.000053  ( 0.003386  0.003570  0.005353)
 71:   3400.67   0.005812   29.37  0.000533  (-0.010642 -0.011503 -0.016963)

* The epsilon (eps) is given for a Dirac delta lineshape.
** The dipole moment derivative (T) already includes vibrational overlap.

The first frequency considered to be a vibration is 6
The total number of vibrations considered is 66


--------------------------
THERMOCHEMISTRY AT 298.15K
--------------------------

Temperature         ... 298.15 K
Pressure            ... 1.00 atm
Total Mass          ... 280.28 AMU

Throughout the following assumptions are being made:
  (1) The electronic state is orbitally nondegenerate
  (2) There are no thermally accessible electronically excited states
  (3) Hindered rotations indicated by low frequency modes are not
      treated as such but are treated as vibrations and this may
      cause some error
  (4) All equations used are the standard statistical mechanics
      equations for an ideal gas
  (5) All vibrations are strictly harmonic

freq.      39.45  E(vib)   ...       0.54 
freq.      65.02  E(vib)   ...       0.50 
freq.      75.72  E(vib)   ...       0.49 
freq.      84.70  E(vib)   ...       0.48 
freq.      97.05  E(vib)   ...       0.46 
freq.      99.50  E(vib)   ...       0.46 
freq.     139.75  E(vib)   ...       0.42 
freq.     166.20  E(vib)   ...       0.39 
freq.     222.59  E(vib)   ...       0.33 
freq.     269.01  E(vib)   ...       0.29 
freq.     288.61  E(vib)   ...       0.27 
freq.     302.50  E(vib)   ...       0.26 
freq.     317.88  E(vib)   ...       0.25 
freq.     330.31  E(vib)   ...       0.24 
freq.     370.20  E(vib)   ...       0.21 
freq.     413.68  E(vib)   ...       0.19 
freq.     447.76  E(vib)   ...       0.17 
freq.     473.89  E(vib)   ...       0.15 
freq.     535.88  E(vib)   ...       0.12 
freq.     586.80  E(vib)   ...       0.11 
freq.     629.17  E(vib)   ...       0.09 
freq.     698.38  E(vib)   ...       0.07 
freq.     731.73  E(vib)   ...       0.06 
freq.     778.50  E(vib)   ...       0.05 
freq.     782.10  E(vib)   ...       0.05 
freq.     807.54  E(vib)   ...       0.05 
freq.     828.19  E(vib)   ...       0.04 
freq.     836.07  E(vib)   ...       0.04 
freq.     846.88  E(vib)   ...       0.04 
freq.     859.06  E(vib)   ...       0.04 
freq.     902.02  E(vib)   ...       0.03 
freq.     930.83  E(vib)   ...       0.03 
freq.     995.57  E(vib)   ...       0.02 
freq.    1047.03  E(vib)   ...       0.02 
freq.    1057.77  E(vib)   ...       0.02 
freq.    1081.61  E(vib)   ...       0.02 
freq.    1141.85  E(vib)   ...       0.01 
freq.    1181.80  E(vib)   ...       0.01 
freq.    1211.12  E(vib)   ...       0.01 
freq.    1235.45  E(vib)   ...       0.01 
freq.    1257.69  E(vib)   ...       0.01 
freq.    1275.81  E(vib)   ...       0.01 
freq.    1302.93  E(vib)   ...       0.01 
freq.    1320.84  E(vib)   ...       0.01 
freq.    1340.03  E(vib)   ...       0.01 
freq.    1369.34  E(vib)   ...       0.01 
freq.    1425.72  E(vib)   ...       0.00 
freq.    1434.59  E(vib)   ...       0.00 
freq.    1453.55  E(vib)   ...       0.00 
freq.    1456.05  E(vib)   ...       0.00 
freq.    1502.15  E(vib)   ...       0.00 
freq.    1509.09  E(vib)   ...       0.00 
freq.    1536.61  E(vib)   ...       0.00 
freq.    1574.62  E(vib)   ...       0.00 
freq.    1595.85  E(vib)   ...       0.00 
freq.    2351.28  E(vib)   ...       0.00 
freq.    2955.12  E(vib)   ...       0.00 
freq.    3006.32  E(vib)   ...       0.00 
freq.    3023.04  E(vib)   ...       0.00 
freq.    3045.19  E(vib)   ...       0.00 
freq.    3052.31  E(vib)   ...       0.00 
freq.    3059.15  E(vib)   ...       0.00 
freq.    3062.26  E(vib)   ...       0.00 
freq.    3074.73  E(vib)   ...       0.00 
freq.    3093.27  E(vib)   ...       0.00 
freq.    3400.67  E(vib)   ...       0.00 

------------
INNER ENERGY
------------

The inner energy is: U= E(el) + E(ZPE) + E(vib) + E(rot) + E(trans)
    E(el)   - is the total energy from the electronic structure calculation
              = E(kin-el) + E(nuc-el) + E(el-el) + E(nuc-nuc)
    E(ZPE)  - the the zero temperature vibrational energy from the frequency calculation
    E(vib)  - the the finite temperature correction to E(ZPE) due to population
              of excited vibrational states
    E(rot)  - is the rotational thermal energy
    E(trans)- is the translational thermal energy

Summary of contributions to the inner energy U:
Electronic energy                ...  -3796.85772662 Eh
Zero point energy                ...      0.17857955 Eh     112.06 kcal/mol
Thermal vibrational correction   ...      0.01137072 Eh       7.14 kcal/mol
Thermal rotational correction    ...      0.00141627 Eh       0.89 kcal/mol
Thermal translational correction ...      0.00141627 Eh       0.89 kcal/mol
-----------------------------------------------------------------------
Total thermal energy                  -3796.66494380 Eh


Summary of corrections to the electronic energy:
(perhaps to be used in another calculation)
Total thermal correction                  0.01420327 Eh       8.91 kcal/mol
Non-thermal (ZPE) correction              0.17857955 Eh     112.06 kcal/mol
-----------------------------------------------------------------------
Total correction                          0.19278282 Eh     120.97 kcal/mol


--------
ENTHALPY
--------

The enthalpy is H = U + kB*T
                kB is Boltzmann's constant
Total free energy                 ...  -3796.66494380 Eh 
Thermal Enthalpy correction       ...      0.00094421 Eh       0.59 kcal/mol
-----------------------------------------------------------------------
Total Enthalpy                    ...  -3796.66399959 Eh


Note: Only C1 symmetry has been detected, increase convergence thresholds 
      if your molecule has a higher symmetry. Symmetry factor of 1.0 is   
      used for the rotational entropy correction. 
 

Note: Rotational entropy computed according to Herzberg 
Infrared and Raman Spectra, Chapter V,1, Van Nostrand Reinhold, 1945 
Point Group:  C1, Symmetry Number:   1  
Rotational constants in cm-1:     0.022929     0.013618     0.010507 

Vibrational entropy computed according to the QRRHO of S. Grimme
Chem.Eur.J. 2012 18 9955


-------
ENTROPY
-------

The entropy contributions are T*S = T*(S(el)+S(vib)+S(rot)+S(trans))
     S(el)   - electronic entropy
     S(vib)  - vibrational entropy
     S(rot)  - rotational entropy
     S(trans)- translational entropy
The entropies will be listed as multiplied by the temperature to get
units of energy

Electronic entropy                ...      0.00000000 Eh      0.00 kcal/mol
Vibrational entropy               ...      0.02013909 Eh     12.64 kcal/mol
Rotational entropy                ...      0.01547209 Eh      9.71 kcal/mol
Translational entropy             ...      0.02033088 Eh     12.76 kcal/mol
-----------------------------------------------------------------------
Final entropy term                ...      0.05594207 Eh     35.10 kcal/mol

In case the symmetry of your molecule has not been determined correctly
or in case you have a reason to use a different symmetry number we print 
out the resulting rotational entropy values for sn=1,12 :
 --------------------------------------------------------
|  sn= 1 | S(rot)=       0.01547209 Eh      9.71 kcal/mol|
|  sn= 2 | S(rot)=       0.01481764 Eh      9.30 kcal/mol|
|  sn= 3 | S(rot)=       0.01443481 Eh      9.06 kcal/mol|
|  sn= 4 | S(rot)=       0.01416318 Eh      8.89 kcal/mol|
|  sn= 5 | S(rot)=       0.01395249 Eh      8.76 kcal/mol|
|  sn= 6 | S(rot)=       0.01378035 Eh      8.65 kcal/mol|
|  sn= 7 | S(rot)=       0.01363480 Eh      8.56 kcal/mol|
|  sn= 8 | S(rot)=       0.01350873 Eh      8.48 kcal/mol|
|  sn= 9 | S(rot)=       0.01339752 Eh      8.41 kcal/mol|
|  sn=10 | S(rot)=       0.01329804 Eh      8.34 kcal/mol|
|  sn=11 | S(rot)=       0.01320805 Eh      8.29 kcal/mol|
|  sn=12 | S(rot)=       0.01312589 Eh      8.24 kcal/mol|
 --------------------------------------------------------


-------------------
GIBBS FREE ENERGY
-------------------

The Gibbs free energy is G = H - T*S

Total enthalpy                    ...  -3796.66399959 Eh 
Total entropy correction          ...     -0.05594207 Eh    -35.10 kcal/mol
-----------------------------------------------------------------------
Final Gibbs free energy         ...  -3796.71994166 Eh

For completeness - the Gibbs free energy minus the electronic energy
G-E(el)                           ...      0.13778496 Eh     86.46 kcal/mol


No protocol specified

Timings for individual modules:

Sum of individual times         ...     1455.572 sec (=  24.260 min)
GTO integral calculation        ...        4.712 sec (=   0.079 min)   0.3 %
SCF iterations                  ...       52.557 sec (=   0.876 min)   3.6 %
SCF Gradient evaluation         ...       12.447 sec (=   0.207 min)   0.9 %
Geometry relaxation             ...        0.101 sec (=   0.002 min)   0.0 %
Numerical frequency calculation ...     1385.755 sec (=  23.096 min)  95.2 %



                             ****ORCA TERMINATED NORMALLY****
TOTAL RUN TIME: 0 days 2 hours 13 minutes 47 seconds 713 msec
