
                                 *****************
                                 * O   R   C   A *
                                 *****************

                                            #,                                       
                                            ###                                      
                                            ####                                     
                                            #####                                    
                                            ######                                   
                                           ########,                                 
                                     ,,################,,,,,                         
                               ,,#################################,,                 
                          ,,##########################################,,             
                       ,#########################################, ''#####,          
                    ,#############################################,,   '####,        
                  ,##################################################,,,,####,       
                ,###########''''           ''''###############################       
              ,#####''   ,,,,##########,,,,          '''####'''          '####       
            ,##' ,,,,###########################,,,                        '##       
           ' ,,###''''                  '''############,,,                           
         ,,##''                                '''############,,,,        ,,,,,,###''
      ,#''                                            '''#######################'''  
     '                                                          ''''####''''         
             ,#######,   #######,   ,#######,      ##                                
            ,#'     '#,  ##    ##  ,#'     '#,    #''#        ######   ,####,        
            ##       ##  ##   ,#'  ##            #'  '#       #        #'  '#        
            ##       ##  #######   ##           ,######,      #####,   #    #        
            '#,     ,#'  ##    ##  '#,     ,#' ,#      #,         ##   #,  ,#        
             '#######'   ##     ##  '#######'  #'      '#     #####' # '####'        



                  #######################################################
                  #                        -***-                        #
                  #          Department of theory and spectroscopy      #
                  #    Directorship and core code : Frank Neese         #
                  #        Max Planck Institute fuer Kohlenforschung    #
                  #                Kaiser Wilhelm Platz 1               #
                  #                 D-45470 Muelheim/Ruhr               #
                  #                      Germany                        #
                  #                                                     #
                  #                  All rights reserved                #
                  #                        -***-                        #
                  #######################################################


                         Program Version 5.0.2 -  RELEASE  -


 With contributions from (in alphabetic order):
   Daniel Aravena         : Magnetic Suceptibility
   Michael Atanasov       : Ab Initio Ligand Field Theory (pilot matlab implementation)
   Alexander A. Auer      : GIAO ZORA, VPT2 properties, NMR spectrum
   Ute Becker             : Parallelization
   Giovanni Bistoni       : ED, misc. LED, open-shell LED, HFLD
   Martin Brehm           : Molecular dynamics
   Dmytro Bykov           : SCF Hessian
   Vijay G. Chilkuri      : MRCI spin determinant printing, contributions to CSF-ICE
   Dipayan Datta          : RHF DLPNO-CCSD density
   Achintya Kumar Dutta   : EOM-CC, STEOM-CC
   Dmitry Ganyushin       : Spin-Orbit,Spin-Spin,Magnetic field MRCI
   Miquel Garcia          : C-PCM and meta-GGA Hessian, CC/C-PCM, Gaussian charge scheme
   Yang Guo               : DLPNO-NEVPT2, F12-NEVPT2, CIM, IAO-localization
   Andreas Hansen         : Spin unrestricted coupled pair/coupled cluster methods
   Benjamin Helmich-Paris : MC-RPA, TRAH-SCF, COSX integrals
   Lee Huntington         : MR-EOM, pCC
   Robert Izsak           : Overlap fitted RIJCOSX, COSX-SCS-MP3, EOM
   Marcus Kettner         : VPT2
   Christian Kollmar      : KDIIS, OOCD, Brueckner-CCSD(T), CCSD density, CASPT2, CASPT2-K
   Simone Kossmann        : Meta GGA functionals, TD-DFT gradient, OOMP2, MP2 Hessian
   Martin Krupicka        : Initial AUTO-CI
   Lucas Lang             : DCDCAS
   Marvin Lechner         : AUTO-CI (C++ implementation), FIC-MRCC
   Dagmar Lenk            : GEPOL surface, SMD
   Dimitrios Liakos       : Extrapolation schemes; Compound Job, initial MDCI parallelization
   Dimitrios Manganas     : Further ROCIS development; embedding schemes
   Dimitrios Pantazis     : SARC Basis sets
   Anastasios Papadopoulos: AUTO-CI, single reference methods and gradients
   Taras Petrenko         : DFT Hessian,TD-DFT gradient, ASA, ECA, R-Raman, ABS, FL, XAS/XES, NRVS
   Peter Pinski           : DLPNO-MP2, DLPNO-MP2 Gradient
   Christoph Reimann      : Effective Core Potentials
   Marius Retegan         : Local ZFS, SOC
   Christoph Riplinger    : Optimizer, TS searches, QM/MM, DLPNO-CCSD(T), (RO)-DLPNO pert. Triples
   Tobias Risthaus        : Range-separated hybrids, TD-DFT gradient, RPA, STAB
   Michael Roemelt        : Original ROCIS implementation
   Masaaki Saitow         : Open-shell DLPNO-CCSD energy and density
   Barbara Sandhoefer     : DKH picture change effects
   Avijit Sen             : IP-ROCIS
   Kantharuban Sivalingam : CASSCF convergence, NEVPT2, FIC-MRCI
   Bernardo de Souza      : ESD, SOC TD-DFT
   Georgi Stoychev        : AutoAux, RI-MP2 NMR, DLPNO-MP2 response
   Willem Van den Heuvel  : Paramagnetic NMR
   Boris Wezisla          : Elementary symmetry handling
   Frank Wennmohs         : Technical directorship


 We gratefully acknowledge several colleagues who have allowed us to
 interface, adapt or use parts of their codes:
   Stefan Grimme, W. Hujo, H. Kruse, P. Pracht,  : VdW corrections, initial TS optimization,
                  C. Bannwarth, S. Ehlert          DFT functionals, gCP, sTDA/sTD-DF
   Ed Valeev, F. Pavosevic, A. Kumar             : LibInt (2-el integral package), F12 methods
   Garnet Chan, S. Sharma, J. Yang, R. Olivares  : DMRG
   Ulf Ekstrom                                   : XCFun DFT Library
   Mihaly Kallay                                 : mrcc  (arbitrary order and MRCC methods)
   Jiri Pittner, Ondrej Demel                    : Mk-CCSD
   Frank Weinhold                                : gennbo (NPA and NBO analysis)
   Christopher J. Cramer and Donald G. Truhlar   : smd solvation model
   Lars Goerigk                                  : TD-DFT with DH, B97 family of functionals
   V. Asgeirsson, H. Jonsson                     : NEB implementation
   FAccTs GmbH                                   : IRC, NEB, NEB-TS, DLPNO-Multilevel, CI-OPT
                                                   MM, QMMM, 2- and 3-layer-ONIOM, Crystal-QMMM,
                                                   LR-CPCM, SF, NACMEs, symmetry and pop. for TD-DFT,
                                                   nearIR, NL-DFT gradient (VV10), updates on ESD,
                                                   ML-optimized integration grids
   S Lehtola, MJT Oliveira, MAL Marques          : LibXC Library
   Liviu Ungur et al                             : ANISO software


 Your calculation uses the libint2 library for the computation of 2-el integrals
 For citations please refer to: http://libint.valeyev.net

 Your ORCA version has been built with support for libXC version: 5.1.0
 For citations please refer to: https://tddft.org/programs/libxc/

 This ORCA versions uses:
   CBLAS   interface :  Fast vector & matrix operations
   LAPACKE interface :  Fast linear algebra routines
   SCALAPACK package :  Parallel linear algebra routines
   Shared memory     :  Shared parallel matrices
   BLAS/LAPACK       :  OpenBLAS 0.3.15  USE64BITINT DYNAMIC_ARCH NO_AFFINITY Haswell SINGLE_THREADED
        Core in use  :  Haswell
   Copyright (c) 2011-2014, The OpenBLAS Project


Your calculation utilizes the atom-pairwise dispersion correction
with the Becke-Johnson damping scheme (D3BJ)
Cite in your paper:
S.Grimme, S.Ehrlich, L.Goerigk, J Comput Chem, (2011), 32, 1456–1465 
S.Grimme, J.Antony, S.Ehrlich and H.Krieg, J.Chem.Phys., 132, (2010), 154104 
   

================================================================================

----- Orbital basis set information -----
Your calculation utilizes the basis: def2-TZVP
   F. Weigend and R. Ahlrichs, Phys. Chem. Chem. Phys. 7, 3297 (2005).

----- AuxJ basis set information -----
Your calculation utilizes the auxiliary basis: def2/J
   F. Weigend, Phys. Chem. Chem. Phys. 8, 1057 (2006).

================================================================================
                                        WARNINGS
                       Please study these warnings very carefully!
================================================================================

WARNING: Gradients needed for Numerical Frequencies
  ===> : Setting RunTyp to EnGrad

WARNING: The environment variable RSH_COMMAND is not set!
  ===> : All Displacements for the Numerical Hessian or Gradient calculation
         will be started on localhost

INFO   : the flag for use of the SHARK integral package has been found!

Your calculation utilizes the atom-pairwise dispersion correction
with the Becke-Johnson damping scheme (D3BJ)
Cite in your paper:
S.Grimme, S.Ehrlich, L.Goerigk, J Comput Chem, (2011), 32, 1456–1465 
S.Grimme, J.Antony, S.Ehrlich and H.Krieg, J.Chem.Phys., 132, (2010), 154104 
   

================================================================================

----- Orbital basis set information -----
Your calculation utilizes the basis: def2-TZVP
   F. Weigend and R. Ahlrichs, Phys. Chem. Chem. Phys. 7, 3297 (2005).

----- AuxJ basis set information -----
Your calculation utilizes the auxiliary basis: def2/J
   F. Weigend, Phys. Chem. Chem. Phys. 8, 1057 (2006).

================================================================================
                                        WARNINGS
                       Please study these warnings very carefully!
================================================================================


WARNING: MOInp is set but Guess=PModel. MOInp will be ignored!
         To read the initial guess from a file you must also specify
         'MORead' in the simple input or 'Guess MORead' in the %scf block

WARNING: Gradients needed for Numerical Frequencies
  ===> : Setting RunTyp to EnGrad

WARNING: your system is open-shell and RHF/RKS was chosen
  ===> : WILL SWITCH to UHF/UKS


WARNING: The environment variable RSH_COMMAND is not set!
  ===> : All Displacements for the Numerical Hessian or Gradient calculation
         will be started on localhost

INFO   : the flag for use of the SHARK integral package has been found!

Your calculation utilizes the atom-pairwise dispersion correction
with the Becke-Johnson damping scheme (D3BJ)
Cite in your paper:
S.Grimme, S.Ehrlich, L.Goerigk, J Comput Chem, (2011), 32, 1456–1465 
S.Grimme, J.Antony, S.Ehrlich and H.Krieg, J.Chem.Phys., 132, (2010), 154104 
   

================================================================================

----- Orbital basis set information -----
Your calculation utilizes the basis: def2-TZVP
   F. Weigend and R. Ahlrichs, Phys. Chem. Chem. Phys. 7, 3297 (2005).

----- AuxJ basis set information -----
Your calculation utilizes the auxiliary basis: def2/J
   F. Weigend, Phys. Chem. Chem. Phys. 8, 1057 (2006).

================================================================================
                                        WARNINGS
                       Please study these warnings very carefully!
================================================================================


WARNING: MOInp is set but Guess=PModel. MOInp will be ignored!
         To read the initial guess from a file you must also specify
         'MORead' in the simple input or 'Guess MORead' in the %scf block

WARNING: Gradients needed for Numerical Frequencies
  ===> : Setting RunTyp to EnGrad

WARNING: The environment variable RSH_COMMAND is not set!
  ===> : All Displacements for the Numerical Hessian or Gradient calculation
         will be started on localhost

INFO   : the flag for use of the SHARK integral package has been found!

Your calculation utilizes the atom-pairwise dispersion correction
with the Becke-Johnson damping scheme (D3BJ)
Cite in your paper:
S.Grimme, S.Ehrlich, L.Goerigk, J Comput Chem, (2011), 32, 1456–1465 
S.Grimme, J.Antony, S.Ehrlich and H.Krieg, J.Chem.Phys., 132, (2010), 154104 
   

================================================================================

----- Orbital basis set information -----
Your calculation utilizes the basis: def2-TZVP
   F. Weigend and R. Ahlrichs, Phys. Chem. Chem. Phys. 7, 3297 (2005).

----- AuxJ basis set information -----
Your calculation utilizes the auxiliary basis: def2/J
   F. Weigend, Phys. Chem. Chem. Phys. 8, 1057 (2006).

================================================================================
                                        WARNINGS
                       Please study these warnings very carefully!
================================================================================

WARNING: Old DensityContainer found on disk!
         Will remove this file - 
         If you want to keep old densities, please start your calculation with a different basename. 


WARNING: MOInp is set but Guess=PModel. MOInp will be ignored!
         To read the initial guess from a file you must also specify
         'MORead' in the simple input or 'Guess MORead' in the %scf block

WARNING: Gradients needed for Numerical Frequencies
  ===> : Setting RunTyp to EnGrad

WARNING: The environment variable RSH_COMMAND is not set!
  ===> : All Displacements for the Numerical Hessian or Gradient calculation
         will be started on localhost

INFO   : the flag for use of the SHARK integral package has been found!

================================================================================
                                       INPUT FILE
================================================================================
NAME = Cu8_Td_opt.txt
|  1> ! PBE D3 def2-TZVP numfreq PModel NOAUTOSTART cpcm(water)
|  2> %pal nprocs=16 end
|  3> %geom maxiter=150 end
|  4> 
|  5> %base "CU8_Td_0"
|  6> 
|  7> * xyz 0 1
|  8> Cu      -1.016417000      1.016417000      1.016417000
|  9> Cu      -1.016417000     -1.016417000     -1.016417000
| 10> Cu       1.016417000      1.016417000     -1.016417000
| 11> Cu       1.637669000      1.637669000      1.637669000
| 12> Cu       1.016417000     -1.016417000      1.016417000
| 13> Cu      -1.637669000      1.637669000     -1.637669000
| 14> Cu      -1.637669000     -1.637669000      1.637669000
| 15> Cu       1.637669000     -1.637669000     -1.637669000
| 16> *
| 17> 
| 18> $new_job
| 19> ! PBE D3 def2-TZVP numfreq PModel NOAUTOSTART cpcm(water)
| 20> %pal nprocs=16 end
| 21> %geom maxiter=150 end
| 22> 
| 23> %base "CU8_Td_1"
| 24> 
| 25> * xyz 1 2
| 26> Cu      -1.046388000      1.009814000      0.998945000
| 27> Cu      -1.034751000     -1.000005000     -1.009709000
| 28> Cu       1.034998000      0.999766000     -1.009942000
| 29> Cu       1.493668000      1.718783000      1.734190000
| 30> Cu       1.046135000     -1.010079000      0.998734000
| 31> Cu      -1.509125000      1.735544000     -1.723218000
| 32> Cu      -1.494008000     -1.718544000      1.734574000
| 33> Cu       1.509471000     -1.735279000     -1.723574000
| 34> *
| 35> 
| 36> $new_job
| 37> ! PBE D3 def2-TZVP numfreq PModel NOAUTOSTART cpcm(water)
| 38> %pal nprocs=16 end
| 39> %geom maxiter=150 end
| 40> 
| 41> %base "CU8_Td_2"
| 42> 
| 43> * xyz 2 1
| 44> Cu      -1.014282000      1.032880000      0.654726000
| 45> Cu      -0.956558000     -0.939892000     -1.534698000
| 46> Cu       0.956729000      0.939921000     -1.533923000
| 47> Cu       0.960637000      0.950647000      2.742998000
| 48> Cu       1.014054000     -1.033165000      0.654864000
| 49> Cu      -1.768744000      1.808765000     -1.863576000
| 50> Cu      -0.960976000     -0.950580000      2.743005000
| 51> Cu       1.769139000     -1.808578000     -1.863396000
| 52> *
| 53> 
| 54> $new_job
| 55> ! PBE D3 def2-TZVP numfreq PModel NOAUTOSTART cpcm(water)
| 56> %pal nprocs=16 end
| 57> %geom maxiter=150 end
| 58> 
| 59> %base "CU8_C2v_3"
| 60> 
| 61> * xyz 3 2
| 62> Cu      -0.968831000      0.984841000      0.709920000
| 63> Cu      -0.975410000     -0.957060000     -1.632300000
| 64> Cu       0.975647000      0.957125000     -1.631782000
| 65> Cu       0.975755000      0.961997000      2.906362000
| 66> Cu       0.968597000     -0.985038000      0.710053000
| 67> Cu      -1.798038000      1.837047000     -1.984413000
| 68> Cu      -0.976166000     -0.962054000      2.906358000
| 69> Cu       1.798444000     -1.836860000     -1.984198000
| 70> *
| 71> 
| 72>                          ****END OF INPUT****
================================================================================


                 $$$$$$$$$$$$$$$$$$$$$$$$$$$$$$$$$$$$$$$$$$$$$$ 
                 $ THERE ARE  4 JOBS TO BE PROCESSED THIS RUN $
                 $$$$$$$$$$$$$$$$$$$$$$$$$$$$$$$$$$$$$$$$$$$$$$ 




                 $$$$$$$$$$$$$$$$  JOB NUMBER  1 $$$$$$$$$$$$$$


                     *******************************
                     * Energy+Gradient Calculation *
                     *******************************

---------------------------------
CARTESIAN COORDINATES (ANGSTROEM)
---------------------------------
  Cu    -1.016417    1.016417    1.016417
  Cu    -1.016417   -1.016417   -1.016417
  Cu     1.016417    1.016417   -1.016417
  Cu     1.637669    1.637669    1.637669
  Cu     1.016417   -1.016417    1.016417
  Cu    -1.637669    1.637669   -1.637669
  Cu    -1.637669   -1.637669    1.637669
  Cu     1.637669   -1.637669   -1.637669

----------------------------
CARTESIAN COORDINATES (A.U.)
----------------------------
  NO LB      ZA    FRAG     MASS         X           Y           Z
   0 Cu   29.0000    0    63.550   -1.920750    1.920750    1.920750
   1 Cu   29.0000    0    63.550   -1.920750   -1.920750   -1.920750
   2 Cu   29.0000    0    63.550    1.920750    1.920750   -1.920750
   3 Cu   29.0000    0    63.550    3.094746    3.094746    3.094746
   4 Cu   29.0000    0    63.550    1.920750   -1.920750    1.920750
   5 Cu   29.0000    0    63.550   -3.094746    3.094746   -3.094746
   6 Cu   29.0000    0    63.550   -3.094746   -3.094746    3.094746
   7 Cu   29.0000    0    63.550    3.094746   -3.094746   -3.094746

--------------------------------
INTERNAL COORDINATES (ANGSTROEM)
--------------------------------
 Cu     0   0   0     0.000000000000     0.00000000     0.00000000
 Cu     1   0   0     2.874861412853     0.00000000     0.00000000
 Cu     1   2   0     2.874861412853    60.00000000     0.00000000
 Cu     3   1   2     2.795725413985    59.05914055   219.71996210
 Cu     4   3   1     2.795725413985    61.88171890    71.31736663
 Cu     1   2   3     2.795725413985    59.05914055    69.75125853
 Cu     2   1   3     2.795725413985    59.05914055   140.28003790
 Cu     5   4   3     2.795725413985   111.87200174    27.55177604

---------------------------
INTERNAL COORDINATES (A.U.)
---------------------------
 Cu     0   0   0     0.000000000000     0.00000000     0.00000000
 Cu     1   0   0     5.432700743270     0.00000000     0.00000000
 Cu     1   2   0     5.432700743270    60.00000000     0.00000000
 Cu     3   1   2     5.283155378076    59.05914055   219.71996210
 Cu     4   3   1     5.283155378076    61.88171890    71.31736663
 Cu     1   2   3     5.283155378076    59.05914055    69.75125853
 Cu     2   1   3     5.283155378076    59.05914055   140.28003790
 Cu     5   4   3     5.283155378076   111.87200174    27.55177604

---------------------
BASIS SET INFORMATION
---------------------
There are 1 groups of distinct atoms

 Group   1 Type Cu  : 17s11p7d1f contracted to 6s4p4d1f pattern {842111/6311/4111/1}

Atom   0Cu   basis set group =>   1
Atom   1Cu   basis set group =>   1
Atom   2Cu   basis set group =>   1
Atom   3Cu   basis set group =>   1
Atom   4Cu   basis set group =>   1
Atom   5Cu   basis set group =>   1
Atom   6Cu   basis set group =>   1
Atom   7Cu   basis set group =>   1
---------------------------------
AUXILIARY/J BASIS SET INFORMATION
---------------------------------
There are 1 groups of distinct atoms

 Group   1 Type Cu  : 19s5p5d3f3g contracted to 8s5p4d3f3g pattern {121111111/11111/2111/111/111}

Atom   0Cu   basis set group =>   1
Atom   1Cu   basis set group =>   1
Atom   2Cu   basis set group =>   1
Atom   3Cu   basis set group =>   1
Atom   4Cu   basis set group =>   1
Atom   5Cu   basis set group =>   1
Atom   6Cu   basis set group =>   1
Atom   7Cu   basis set group =>   1
No protocol specified


           ************************************************************
           *        Program running with 16 parallel MPI-processes    *
           *              working on a common directory               *
           ************************************************************
------------------------------------------------------------------------------
                           ORCA GTO INTEGRAL CALCULATION
                           -- RI-GTO INTEGRALS CHOSEN --
------------------------------------------------------------------------------
------------------------------------------------------------------------------
                   ___                                                        
                  /   \      - P O W E R E D   B Y -                         
                 /     \                                                     
                 |  |  |   _    _      __       _____    __    __             
                 |  |  |  | |  | |    /  \     |  _  \  |  |  /  |          
                  \  \/   | |  | |   /    \    | | | |  |  | /  /          
                 / \  \   | |__| |  /  /\  \   | |_| |  |  |/  /          
                |  |  |   |  __  | /  /__\  \  |    /   |      \           
                |  |  |   | |  | | |   __   |  |    \   |  |\   \          
                \     /   | |  | | |  |  |  |  | |\  \  |  | \   \       
                 \___/    |_|  |_| |__|  |__|  |_| \__\ |__|  \__/        
                                                                              
                      - O R C A' S   B I G   F R I E N D -                    
                                      &                                       
                       - I N T E G R A L  F E E D E R -                       
                                                                              
 v1 FN, 2020, v2 2021                                                         
------------------------------------------------------------------------------


Reading SHARK input file CU8_Td_0.SHARKINP.tmp ... ok
----------------------
SHARK INTEGRAL PACKAGE
----------------------

Number of atoms                             ...      8
Number of basis functions                   ...    360
Number of shells                            ...    120
Maximum angular momentum                    ...      3
Integral batch strategy                     ... SHARK/LIBINT Hybrid
RI-J (if used) integral strategy            ... SPLIT-RIJ (Revised 2003 algorithm where possible)
Printlevel                                  ...      1
Contraction scheme used                     ... SEGMENTED contraction
Coulomb Range Separation                    ... NOT USED
Exchange Range Separation                   ... NOT USED
Finite Nucleus Model                        ... NOT USED
Auxiliary Coulomb fitting basis             ... AVAILABLE
   # of basis functions in Aux-J            ...    728
   # of shells in Aux-J                     ...    184
   Maximum angular momentum in Aux-J        ...      4
Auxiliary J/K fitting basis                 ... NOT available
Auxiliary Correlation fitting basis         ... NOT available
Auxiliary 'external' fitting basis          ... NOT available
Integral threshold                          ...     2.500000e-11
Primitive cut-off                           ...     2.500000e-12
Primitive pair pre-selection threshold      ...     2.500000e-12

Calculating pre-screening integrals         ... done (  0.1 sec) Dimension = 120
Organizing shell pair data                  ... done (  0.4 sec)
Shell pair information
Total number of shell pairs                 ...      7260
Shell pairs after pre-screening             ...      5474
Total number of primitive shell pairs       ...     42088
Primitive shell pairs kept                  ...     18378
          la=0 lb=0:    842 shell pairs
          la=1 lb=0:   1080 shell pairs
          la=1 lb=1:    388 shell pairs
          la=2 lb=0:   1268 shell pairs
          la=2 lb=1:    832 shell pairs
          la=2 lb=2:    470 shell pairs
          la=3 lb=0:    220 shell pairs
          la=3 lb=1:    160 shell pairs
          la=3 lb=2:    188 shell pairs
          la=3 lb=3:     26 shell pairs

Calculating one electron integrals          ... done (  0.0 sec)
Calculating RI/J V-Matrix + Cholesky decomp.... done (  0.0 sec)
Calculating Nuclear repulsion               ... done (  0.0 sec) ENN=   3802.753737005815 Eh

SHARK setup successfully completed in   0.8 seconds

Maximum memory used throughout the entire GTOINT-calculation: 24.0 MB
No protocol specified


           ************************************************************
           *        Program running with 16 parallel MPI-processes    *
           *              working on a common directory               *
           ************************************************************
-------------------------------------------------------------------------------
                                 ORCA SCF
-------------------------------------------------------------------------------

------------
SCF SETTINGS
------------
Hamiltonian:
 Density Functional     Method          .... DFT(GTOs)
 Exchange Functional    Exchange        .... PBE
   PBE kappa parameter   XKappa         ....  0.804000
   PBE mue parameter    XMuePBE         ....  0.219520
 Correlation Functional Correlation     .... PBE
   PBE beta parameter  CBetaPBE         ....  0.066725
 LDA part of GGA corr.  LDAOpt          .... PW91-LDA
 Gradients option       PostSCFGGA      .... off
   Density functional embedding theory  .... OFF
   NL short-range parameter             ....  6.400000
 RI-approximation to the Coulomb term is turned on
   Number of AuxJ basis functions       .... 728


General Settings:
 Integral files         IntName         .... CU8_Td_0
 Hartree-Fock type      HFTyp           .... RHF
 Total Charge           Charge          ....    0
 Multiplicity           Mult            ....    1
 Number of Electrons    NEL             ....  232
 Basis Dimension        Dim             ....  360
 Nuclear Repulsion      ENuc            ....   3802.7537370058 Eh

Convergence Acceleration:
 DIIS                   CNVDIIS         .... on
   Start iteration      DIISMaxIt       ....    12
   Startup error        DIISStart       ....  0.200000
   # of expansion vecs  DIISMaxEq       ....     5
   Bias factor          DIISBfac        ....   1.050
   Max. coefficient     DIISMaxC        ....  10.000
 Trust-Rad. Augm. Hess. CNVTRAH         .... auto
   Auto Start mean grad. ratio tolernc. ....  1.125000
   Auto Start start iteration           ....    20
   Auto Start num. interpolation iter.  ....    10
   Max. Number of Micro iterations      ....    16
   Max. Number of Macro iterations      .... Maxiter - #DIIS iter
   Number of Davidson start vectors     ....     2
   Converg. threshold I  (grad. norm)   ....   1.000e-05
   Converg. threshold II (energy diff.) ....   1.000e-08
   Grad. Scal. Fac. for Micro threshold ....   0.100
   Minimum threshold for Micro iter.    ....   0.010
   NR start threshold (gradient norm)   ....   0.001
   Initial trust radius                 ....   0.400
   Minimum AH scaling param. (alpha)    ....   1.000
   Maximum AH scaling param. (alpha)    .... 1000.000
   Orbital update algorithm             .... Taylor
   White noise on init. David. guess    .... on
   Maximum white noise                  ....   0.010
   Quad. conv. algorithm                .... NR
 SOSCF                  CNVSOSCF        .... off
 Level Shifting         CNVShift        .... on
   Level shift para.    LevelShift      ....    0.2500
   Turn off err/grad.   ShiftErr        ....    0.0010
 Zerner damping         CNVZerner       .... off
 Static damping         CNVDamp         .... on
   Fraction old density DampFac         ....    0.7000
   Max. Damping (<1)    DampMax         ....    0.9800
   Min. Damping (>=0)   DampMin         ....    0.0000
   Turn off err/grad.   DampErr         ....    0.1000
 Fernandez-Rico         CNVRico         .... off

SCF Procedure:
 Maximum # iterations   MaxIter         ....   125
 SCF integral mode      SCFMode         .... Direct
   Integral package                     .... SHARK and LIBINT hybrid scheme
 Reset frequency        DirectResetFreq ....    20
 Integral Threshold     Thresh          ....  2.500e-11 Eh
 Primitive CutOff       TCut            ....  2.500e-12 Eh

Convergence Tolerance:
 Convergence Check Mode ConvCheckMode   .... Total+1el-Energy
 Convergence forced     ConvForced      .... 0
 Energy Change          TolE            ....  1.000e-08 Eh
 1-El. energy change                    ....  1.000e-05 Eh
 DIIS Error             TolErr          ....  5.000e-07


Diagonalization of the overlap matrix:
Smallest eigenvalue                        ... 8.680e-03
Time for diagonalization                   ...    0.022 sec
Threshold for overlap eigenvalues          ... 1.000e-08
Number of eigenvalues below threshold      ... 0
Time for construction of square roots      ...    0.018 sec
Total time needed                          ...    0.042 sec

Time for model grid setup =    0.318 sec

------------------------------
INITIAL GUESS: MODEL POTENTIAL
------------------------------
Loading Hartree-Fock densities                     ... done
Calculating cut-offs                               ... done
Initializing the effective Hamiltonian             ... done
Setting up the integral package (SHARK)            ... done
Starting the Coulomb interaction                   ... done (   0.1 sec)
Reading the grid                                   ... done
Mapping shells                                     ... done
Starting the XC term evaluation                    ... done (   0.1 sec)
  promolecular density results
     # of electrons  =    232.000829755
     EX              =   -523.918462038
     EC              =    -10.864905151
     EX+EC           =   -534.783367189
Transforming the Hamiltonian                       ... done (   0.0 sec)
Diagonalizing the Hamiltonian                      ... done (   0.0 sec)
Back transforming the eigenvectors                 ... done (   0.0 sec)
Now organizing SCF variables                       ... done
                      ------------------
                      INITIAL GUESS DONE (   0.6 sec)
                      ------------------
-------------------
DFT GRID GENERATION
-------------------

General Integration Accuracy     IntAcc      ... 4.388
Radial Grid Type                 RadialGrid  ... OptM3 with GC (2021)
Angular Grid (max. ang.)         AngularGrid ... 4 (Lebedev-302)
Angular grid pruning method      GridPruning ... 4 (adaptive)
Weight generation scheme         WeightScheme... Becke
Basis function cutoff            BFCut       ... 1.0000e-11
Integration weight cutoff        WCut        ... 1.0000e-14
Angular grids for H and He will be reduced by one unit
Partially contracted basis set               ... off
Rotationally invariant grid construction     ... off

Total number of grid points                  ...    89772
Total number of batches                      ...     1408
Average number of points per batch           ...       63
Average number of grid points per atom       ...    11222
Time for grid setup =    1.210 sec


--------------------
CPCM SOLVATION MODEL
--------------------
CPCM parameters:
  Epsilon                                         ...      80.4000
  Refrac                                          ...       1.3300
  Rsolv                                           ...       1.3000
  Surface type                                    ... GAUSSIAN VDW
  Epsilon function type                           ...         CPCM
Radii:
 Radius for Cu used is    3.1747 Bohr (=   1.6800 Ang.)
Calculating surface                               ...        done! (  0.0s)
GEPOL surface points                              ...          832
GEPOL Volume                                      ...     982.8582
GEPOL Surface-area                                ...     683.5038
Calculating surface distance matrix               ...        done! (  0.0s)
Performing Cholesky decomposition & store         ...        done! (  0.1s)
Overall time for CPCM initialization              ...                 0.1s
--------------
SCF ITERATIONS
--------------
ITER       Energy         Delta-E        Max-DP      RMS-DP      [F,P]     Damp
               ***  Starting incremental Fock matrix formation  ***
  0 -13122.1922363097   0.000000000000 0.05429383  0.00124130  0.1727293 0.7000
  1 -13122.3079825927  -0.115746282963 0.04772602  0.00072350  0.0432614 0.7000
                               ***Turning on DIIS***
  2 -13122.3556049721  -0.047622379408 0.10789962  0.00159371  0.0419474 0.0000
  3 -13122.4453804216  -0.089775449529 0.01401838  0.00042336  0.0730047 0.0000
  4 -13122.4748531601  -0.029472738493 0.01248736  0.00017573  0.0060570 0.0000
  5 -13122.4763739907  -0.001520830610 0.00380984  0.00006824  0.0040365 0.0000
  6 -13122.4766054301  -0.000231439330 0.00163923  0.00003361  0.0029155 0.0000
  7 -13122.4766620537  -0.000056623667 0.00105514  0.00001780  0.0013640 0.0000
  8 -13122.4766799543  -0.000017900589 0.00190678  0.00003286  0.0002218 0.0000
  9 -13122.4766852831  -0.000005328731 0.00030149  0.00000526  0.0006846 0.0000
 10 -13122.4766870310  -0.000001747918 0.00010980  0.00000186  0.0001193 0.0000
 11 -13122.4766870776  -0.000000046664 0.00005455  0.00000083  0.0000825 0.0000
 12 -13122.4766871248  -0.000000047168 0.00003452  0.00000037  0.0000279 0.0000
 13 -13122.4766872513  -0.000000126463 0.00000524  0.00000007  0.0000083 0.0000
 14 -13122.4766872262   0.000000025095 0.00000258  0.00000004  0.0000030 0.0000
 15 -13122.4766872358  -0.000000009615 0.00000295  0.00000003  0.0000048 0.0000
 16 -13122.4766872531  -0.000000017271 0.00000105  0.00000001  0.0000011 0.0000
 17 -13122.4766870941   0.000000159009 0.00000106  0.00000001  0.0000012 0.0000
                            ***DIIS convergence achieved***

               *****************************************************
               *                     SUCCESS                       *
               *           SCF CONVERGED AFTER  18 CYCLES          *
               *****************************************************


----------------
TOTAL SCF ENERGY
----------------

Total Energy       :       -13122.47668736 Eh         -357080.74430 eV

Components:
Nuclear Repulsion  :         3802.75373701 Eh          103478.18991 eV
Electronic Energy  :       -16925.23042437 Eh         -460558.93421 eV
One Electron Energy:       -25901.79116518 Eh         -704823.57014 eV
Two Electron Energy:         8976.56074081 Eh          244264.63593 eV
CPCM Dielectric    :           -0.01788230 Eh              -0.48660 eV

Virial components:
Potential Energy   :       -26224.60858300 Eh         -713607.87867 eV
Kinetic Energy     :        13102.13189564 Eh          356527.13437 eV
Virial Ratio       :            2.00155278


DFT components:
N(Alpha)           :      116.000035671167 electrons
N(Beta)            :      116.000035671167 electrons
N(Total)           :      232.000071342333 electrons
E(X)               :     -524.322922971329 Eh       
E(C)               :      -10.908842619954 Eh       
E(XC)              :     -535.231765591283 Eh       
DFET-embed. en.    :        0.000000000000 Eh       
CPCM Solvation Model Properties:
Surface-charge          :           -0.19979998
Charge-correction       :            0.00339830 Eh               0.09247 eV
Free-energy (cav+disp)  :  This term is not implemented in the current solvation scheme

---------------
SCF CONVERGENCE
---------------

  Last Energy change         ...   -2.6844e-07  Tolerance :   1.0000e-08
  Last MAX-Density change    ...    5.3567e-07  Tolerance :   1.0000e-07
  Last RMS-Density change    ...    6.7108e-09  Tolerance :   5.0000e-09
  Last DIIS Error            ...    3.9919e-07  Tolerance :   5.0000e-07

             **** THE GBW FILE WAS UPDATED (CU8_Td_0.gbw) ****
             **** DENSITY CU8_Td_0.scfp WAS UPDATED ****
             **** ENERGY FILE WAS UPDATED (CU8_Td_0.en.tmp) ****
             **** THE GBW FILE WAS UPDATED (CU8_Td_0.gbw) ****
             **** DENSITY CU8_Td_0.scfp WAS UPDATED ****
----------------
ORBITAL ENERGIES
----------------

  NO   OCC          E(Eh)            E(eV) 
   0   2.0000    -321.480429     -8747.9272 
   1   2.0000    -321.480429     -8747.9272 
   2   2.0000    -321.480429     -8747.9272 
   3   2.0000    -321.480425     -8747.9271 
   4   2.0000    -321.472619     -8747.7147 
   5   2.0000    -321.472619     -8747.7147 
   6   2.0000    -321.472619     -8747.7147 
   7   2.0000    -321.472617     -8747.7146 
   8   2.0000     -38.246805     -1040.7485 
   9   2.0000     -38.246805     -1040.7485 
  10   2.0000     -38.246805     -1040.7485 
  11   2.0000     -38.246777     -1040.7477 
  12   2.0000     -38.237279     -1040.4892 
  13   2.0000     -38.237278     -1040.4892 
  14   2.0000     -38.237278     -1040.4892 
  15   2.0000     -38.237265     -1040.4889 
  16   2.0000     -33.537859      -912.6115 
  17   2.0000     -33.537859      -912.6115 
  18   2.0000     -33.537859      -912.6115 
  19   2.0000     -33.537846      -912.6112 
  20   2.0000     -33.537738      -912.6082 
  21   2.0000     -33.537738      -912.6082 
  22   2.0000     -33.537738      -912.6082 
  23   2.0000     -33.537729      -912.6080 
  24   2.0000     -33.537729      -912.6080 
  25   2.0000     -33.537729      -912.6080 
  26   2.0000     -33.537728      -912.6080 
  27   2.0000     -33.537728      -912.6080 
  28   2.0000     -33.528353      -912.3529 
  29   2.0000     -33.528353      -912.3529 
  30   2.0000     -33.528353      -912.3529 
  31   2.0000     -33.528349      -912.3528 
  32   2.0000     -33.528330      -912.3522 
  33   2.0000     -33.528330      -912.3522 
  34   2.0000     -33.528330      -912.3522 
  35   2.0000     -33.528330      -912.3522 
  36   2.0000     -33.528330      -912.3522 
  37   2.0000     -33.528329      -912.3522 
  38   2.0000     -33.528325      -912.3521 
  39   2.0000     -33.528325      -912.3521 
  40   2.0000      -4.076474      -110.9265 
  41   2.0000      -4.076446      -110.9257 
  42   2.0000      -4.076446      -110.9257 
  43   2.0000      -4.076446      -110.9257 
  44   2.0000      -4.067510      -110.6826 
  45   2.0000      -4.067510      -110.6826 
  46   2.0000      -4.067510      -110.6826 
  47   2.0000      -4.067507      -110.6825 
  48   2.0000      -2.611933       -71.0743 
  49   2.0000      -2.611933       -71.0743 
  50   2.0000      -2.611926       -71.0741 
  51   2.0000      -2.611926       -71.0741 
  52   2.0000      -2.611926       -71.0741 
  53   2.0000      -2.611797       -71.0706 
  54   2.0000      -2.611797       -71.0706 
  55   2.0000      -2.611797       -71.0706 
  56   2.0000      -2.610025       -71.0224 
  57   2.0000      -2.609661       -71.0125 
  58   2.0000      -2.609661       -71.0125 
  59   2.0000      -2.609661       -71.0125 
  60   2.0000      -2.602918       -70.8290 
  61   2.0000      -2.602913       -70.8289 
  62   2.0000      -2.602913       -70.8289 
  63   2.0000      -2.602913       -70.8289 
  64   2.0000      -2.602325       -70.8129 
  65   2.0000      -2.602325       -70.8129 
  66   2.0000      -2.602325       -70.8129 
  67   2.0000      -2.602323       -70.8128 
  68   2.0000      -2.602323       -70.8128 
  69   2.0000      -2.602323       -70.8128 
  70   2.0000      -2.602320       -70.8127 
  71   2.0000      -2.602320       -70.8127 
  72   2.0000      -0.275033        -7.4840 
  73   2.0000      -0.217307        -5.9132 
  74   2.0000      -0.217307        -5.9132 
  75   2.0000      -0.217307        -5.9132 
  76   2.0000      -0.204345        -5.5605 
  77   2.0000      -0.202195        -5.5020 
  78   2.0000      -0.202195        -5.5020 
  79   2.0000      -0.202195        -5.5020 
  80   2.0000      -0.197276        -5.3682 
  81   2.0000      -0.197276        -5.3682 
  82   2.0000      -0.191257        -5.2044 
  83   2.0000      -0.191257        -5.2044 
  84   2.0000      -0.191257        -5.2044 
  85   2.0000      -0.188129        -5.1193 
  86   2.0000      -0.188129        -5.1193 
  87   2.0000      -0.188129        -5.1193 
  88   2.0000      -0.186926        -5.0865 
  89   2.0000      -0.186926        -5.0865 
  90   2.0000      -0.177311        -4.8249 
  91   2.0000      -0.177311        -4.8249 
  92   2.0000      -0.177311        -4.8249 
  93   2.0000      -0.176557        -4.8044 
  94   2.0000      -0.176557        -4.8044 
  95   2.0000      -0.176557        -4.8044 
  96   2.0000      -0.175922        -4.7871 
  97   2.0000      -0.175292        -4.7699 
  98   2.0000      -0.175292        -4.7699 
  99   2.0000      -0.172128        -4.6838 
 100   2.0000      -0.172128        -4.6838 
 101   2.0000      -0.172128        -4.6838 
 102   2.0000      -0.171101        -4.6559 
 103   2.0000      -0.171101        -4.6559 
 104   2.0000      -0.171101        -4.6559 
 105   2.0000      -0.168716        -4.5910 
 106   2.0000      -0.168716        -4.5910 
 107   2.0000      -0.167729        -4.5641 
 108   2.0000      -0.167729        -4.5641 
 109   2.0000      -0.167729        -4.5641 
 110   2.0000      -0.167001        -4.5443 
 111   2.0000      -0.167001        -4.5443 
 112   2.0000      -0.167001        -4.5443 
 113   2.0000      -0.152720        -4.1557 
 114   2.0000      -0.152720        -4.1557 
 115   2.0000      -0.152720        -4.1557 
 116   0.0000      -0.082260        -2.2384 
 117   0.0000      -0.082260        -2.2384 
 118   0.0000      -0.082260        -2.2384 
 119   0.0000      -0.074535        -2.0282 
 120   0.0000      -0.039099        -1.0639 
 121   0.0000      -0.039099        -1.0639 
 122   0.0000      -0.000251        -0.0068 
 123   0.0000      -0.000036        -0.0010 
 124   0.0000      -0.000036        -0.0010 
 125   0.0000      -0.000036        -0.0010 
 126   0.0000       0.027347         0.7441 
 127   0.0000       0.027347         0.7441 
 128   0.0000       0.027347         0.7441 
 129   0.0000       0.073188         1.9916 
 130   0.0000       0.073188         1.9916 
 131   0.0000       0.073188         1.9916 
 132   0.0000       0.100978         2.7478 
 133   0.0000       0.106448         2.8966 
 134   0.0000       0.106448         2.8966 
 135   0.0000       0.106448         2.8966 
 136   0.0000       0.123507         3.3608 
 137   0.0000       0.123507         3.3608 
 138   0.0000       0.123507         3.3608 
 139   0.0000       0.154111         4.1936 
 140   0.0000       0.154111         4.1936 
 141   0.0000       0.161323         4.3898 
 142   0.0000       0.161323         4.3898 
 143   0.0000       0.161323         4.3898 
 144   0.0000       0.184039         5.0079 
 145   0.0000       0.192001         5.2246 
 146   0.0000       0.192001         5.2246 
 147   0.0000       0.196776         5.3545 
 148   0.0000       0.196776         5.3545 
 149   0.0000       0.196776         5.3545 
 150   0.0000       0.209325         5.6960 
 151   0.0000       0.234731         6.3874 
 152   0.0000       0.234731         6.3874 
 153   0.0000       0.234731         6.3874 
 154   0.0000       0.239773         6.5245 
 155   0.0000       0.239773         6.5245 
 156   0.0000       0.239773         6.5245 
 157   0.0000       0.256536         6.9807 
 158   0.0000       0.256536         6.9807 
 159   0.0000       0.283732         7.7207 
 160   0.0000       0.283732         7.7207 
 161   0.0000       0.283732         7.7207 
 162   0.0000       0.291815         7.9407 
 163   0.0000       0.291815         7.9407 
 164   0.0000       0.291815         7.9407 
 165   0.0000       0.314380         8.5547 
 166   0.0000       0.314381         8.5547 
 167   0.0000       0.314381         8.5547 
 168   0.0000       0.339964         9.2509 
 169   0.0000       0.345773         9.4090 
 170   0.0000       0.345773         9.4090 
 171   0.0000       0.345773         9.4090 
 172   0.0000       0.350338         9.5332 
 173   0.0000       0.359032         9.7698 
 174   0.0000       0.359032         9.7698 
 175   0.0000       0.369323        10.0498 
 176   0.0000       0.369323        10.0498 
 177   0.0000       0.369323        10.0498 
 178   0.0000       0.393632        10.7113 
 179   0.0000       0.393632        10.7113 
 180   0.0000       0.393632        10.7113 
 181   0.0000       0.400139        10.8883 
 182   0.0000       0.400139        10.8883 
 183   0.0000       0.400140        10.8883 
 184   0.0000       0.424555        11.5527 
 185   0.0000       0.424555        11.5527 
 186   0.0000       0.424555        11.5527 
 187   0.0000       0.424898        11.5621 
 188   0.0000       0.424898        11.5621 
 189   0.0000       0.496770        13.5178 
 190   0.0000       0.496770        13.5178 
 191   0.0000       0.496770        13.5178 
 192   0.0000       0.731467        19.9042 
 193   0.0000       0.731467        19.9042 
 194   0.0000       0.731467        19.9042 
 195   0.0000       0.798443        21.7268 
 196   0.0000       0.798443        21.7268 
 197   0.0000       0.802800        21.8453 
 198   0.0000       0.802800        21.8453 
 199   0.0000       0.802800        21.8453 
 200   0.0000       0.818657        22.2768 
 201   0.0000       0.818657        22.2768 
 202   0.0000       0.831962        22.6388 
 203   0.0000       0.884714        24.0743 
 204   0.0000       0.884714        24.0743 
 205   0.0000       0.884714        24.0743 
 206   0.0000       0.902616        24.5614 
 207   0.0000       0.902616        24.5614 
 208   0.0000       0.902616        24.5614 
 209   0.0000       0.908898        24.7324 
 210   0.0000       0.908898        24.7324 
 211   0.0000       0.908898        24.7324 
 212   0.0000       0.930612        25.3232 
 213   0.0000       0.930612        25.3232 
 214   0.0000       0.935138        25.4464 
 215   0.0000       0.960097        26.1256 
 216   0.0000       0.960097        26.1256 
 217   0.0000       0.960097        26.1256 
 218   0.0000       1.079347        29.3705 
 219   0.0000       1.079347        29.3705 
 220   0.0000       1.079347        29.3705 
 221   0.0000       1.099953        29.9312 
 222   0.0000       1.099953        29.9312 
 223   0.0000       1.099953        29.9312 
 224   0.0000       1.150343        31.3024 
 225   0.0000       1.150343        31.3024 
 226   0.0000       1.177665        32.0459 
 227   0.0000       1.177665        32.0459 
 228   0.0000       1.177665        32.0459 
 229   0.0000       1.178396        32.0658 
 230   0.0000       1.178396        32.0658 
 231   0.0000       1.178396        32.0658 
 232   0.0000       2.136497        58.1371 
 233   0.0000       2.136497        58.1371 
 234   0.0000       2.189392        59.5764 
 235   0.0000       2.189392        59.5764 
 236   0.0000       2.189392        59.5764 
 237   0.0000       2.212719        60.2111 
 238   0.0000       2.212719        60.2111 
 239   0.0000       2.212719        60.2111 
 240   0.0000       2.219724        60.4017 
 241   0.0000       2.242110        61.0109 
 242   0.0000       2.242110        61.0109 
 243   0.0000       2.242110        61.0109 
 244   0.0000       2.260319        61.5064 
 245   0.0000       2.314405        62.9782 
 246   0.0000       2.314405        62.9782 
 247   0.0000       2.314405        62.9782 
 248   0.0000       2.366949        64.4080 
 249   0.0000       2.366949        64.4080 
 250   0.0000       2.366949        64.4080 
 251   0.0000       2.401047        65.3358 
 252   0.0000       2.401047        65.3358 
 253   0.0000       2.498243        67.9806 
 254   0.0000       2.498243        67.9806 
 255   0.0000       2.498243        67.9806 
 256   0.0000       2.809585        76.4527 
 257   0.0000       3.194310        86.9216 
 258   0.0000       3.194310        86.9216 
 259   0.0000       3.194310        86.9216 
 260   0.0000       3.239024        88.1383 
 261   0.0000       3.252307        88.4998 
 262   0.0000       3.252307        88.4998 
 263   0.0000       3.252307        88.4998 
 264   0.0000       3.519427        95.7685 
 265   0.0000       3.519428        95.7685 
 266   0.0000       3.519428        95.7685 
 267   0.0000       3.522742        95.8587 
 268   0.0000       3.522742        95.8587 
 269   0.0000       3.569867        97.1410 
 270   0.0000       3.569867        97.1410 
 271   0.0000       3.569867        97.1410 
 272   0.0000       3.589295        97.6697 
 273   0.0000       3.589295        97.6697 
 274   0.0000       3.593722        97.7901 
 275   0.0000       3.593722        97.7901 
 276   0.0000       3.593722        97.7901 
 277   0.0000       3.601821        98.0105 
 278   0.0000       3.605879        98.1210 
 279   0.0000       3.605879        98.1210 
 280   0.0000       3.605879        98.1210 
 281   0.0000       3.646255        99.2196 
 282   0.0000       3.646255        99.2196 
 283   0.0000       3.666781        99.7782 
 284   0.0000       3.666781        99.7782 
 285   0.0000       3.666781        99.7782 
 286   0.0000       3.698354       100.6373 
 287   0.0000       3.719511       101.2130 
 288   0.0000       3.719511       101.2130 
 289   0.0000       3.719511       101.2130 
 290   0.0000       3.735131       101.6381 
 291   0.0000       3.735131       101.6381 
 292   0.0000       3.735131       101.6381 
 293   0.0000       3.782969       102.9398 
 294   0.0000       3.782969       102.9398 
 295   0.0000       3.782969       102.9398 
 296   0.0000       3.801295       103.4385 
 297   0.0000       3.801295       103.4385 
 298   0.0000       3.882656       105.6524 
 299   0.0000       3.882656       105.6524 
 300   0.0000       3.882656       105.6524 
 301   0.0000       4.047908       110.1492 
 302   0.0000       4.047908       110.1492 
 303   0.0000       4.047908       110.1492 
 304   0.0000       5.673795       154.3918 
 305   0.0000       5.674707       154.4166 
 306   0.0000       5.674707       154.4166 
 307   0.0000       5.674707       154.4166 
 308   0.0000       5.675552       154.4396 
 309   0.0000       5.675552       154.4396 
 310   0.0000       5.675552       154.4396 
 311   0.0000       5.675652       154.4423 
 312   0.0000       5.675816       154.4468 
 313   0.0000       5.675816       154.4468 
 314   0.0000       5.675816       154.4468 
 315   0.0000       5.675925       154.4498 
 316   0.0000       5.675925       154.4498 
 317   0.0000       5.676244       154.4584 
 318   0.0000       5.676244       154.4584 
 319   0.0000       5.676244       154.4584 
 320   0.0000       5.678447       154.5184 
 321   0.0000       5.678447       154.5184 
 322   0.0000       5.678784       154.5276 
 323   0.0000       5.678784       154.5276 
 324   0.0000       5.678784       154.5276 
 325   0.0000       5.680132       154.5642 
 326   0.0000       5.680132       154.5642 
 327   0.0000       5.680132       154.5642 
 328   0.0000       5.681610       154.6045 
 329   0.0000       5.681610       154.6045 
 330   0.0000       5.681610       154.6045 
 331   0.0000       5.682310       154.6235 
 332   0.0000       5.682310       154.6235 
 333   0.0000       5.682310       154.6235 
 334   0.0000       5.682398       154.6259 
 335   0.0000       5.682412       154.6263 
 336   0.0000       5.682412       154.6263 
 337   0.0000       5.682412       154.6263 
 338   0.0000       5.682785       154.6364 
 339   0.0000       5.683115       154.6454 
 340   0.0000       5.683476       154.6553 
 341   0.0000       5.683477       154.6553 
 342   0.0000       5.683477       154.6553 
 343   0.0000       5.683923       154.6674 
 344   0.0000       5.683923       154.6674 
 345   0.0000       5.683923       154.6674 
 346   0.0000       5.684580       154.6853 
 347   0.0000       5.684580       154.6853 
 348   0.0000       5.685035       154.6977 
 349   0.0000       5.685146       154.7007 
 350   0.0000       5.685146       154.7007 
 351   0.0000       5.685146       154.7007 
 352   0.0000       5.686006       154.7241 
 353   0.0000       5.686006       154.7241 
 354   0.0000       5.686006       154.7241 
 355   0.0000       5.688925       154.8035 
 356   0.0000       5.688925       154.8035 
 357   0.0000       5.690298       154.8409 
 358   0.0000       5.690298       154.8409 
 359   0.0000       5.690298       154.8409 

                    ********************************
                    * MULLIKEN POPULATION ANALYSIS *
                    ********************************

-----------------------
MULLIKEN ATOMIC CHARGES
-----------------------
   0 Cu:    0.019469
   1 Cu:    0.019469
   2 Cu:    0.019470
   3 Cu:   -0.019470
   4 Cu:    0.019469
   5 Cu:   -0.019469
   6 Cu:   -0.019469
   7 Cu:   -0.019470
Sum of atomic charges:   -0.0000000

--------------------------------
MULLIKEN REDUCED ORBITAL CHARGES
--------------------------------
  0 Cus       :     6.872346  s :     6.872346
      pz      :     4.090405  p :    12.271214
      px      :     4.090405
      py      :     4.090405
      dz2     :     1.963275  d :     9.836948
      dxz     :     1.970132
      dyz     :     1.970132
      dx2y2   :     1.963275
      dxy     :     1.970132
      f0      :     0.000004  f :     0.000023
      f+1     :     0.000003
      f-1     :     0.000003
      f+2     :     0.000003
      f-2     :     0.000003
      f+3     :     0.000003
      f-3     :     0.000003
  1 Cus       :     6.872346  s :     6.872346
      pz      :     4.090405  p :    12.271214
      px      :     4.090405
      py      :     4.090405
      dz2     :     1.963275  d :     9.836948
      dxz     :     1.970132
      dyz     :     1.970132
      dx2y2   :     1.963275
      dxy     :     1.970132
      f0      :     0.000004  f :     0.000023
      f+1     :     0.000003
      f-1     :     0.000003
      f+2     :     0.000003
      f-2     :     0.000003
      f+3     :     0.000003
      f-3     :     0.000003
  2 Cus       :     6.872346  s :     6.872346
      pz      :     4.090405  p :    12.271214
      px      :     4.090405
      py      :     4.090405
      dz2     :     1.963275  d :     9.836948
      dxz     :     1.970132
      dyz     :     1.970132
      dx2y2   :     1.963275
      dxy     :     1.970132
      f0      :     0.000004  f :     0.000023
      f+1     :     0.000003
      f-1     :     0.000003
      f+2     :     0.000003
      f-2     :     0.000003
      f+3     :     0.000003
      f-3     :     0.000003
  3 Cus       :     7.046846  s :     7.046846
      pz      :     4.033927  p :    12.101782
      px      :     4.033927
      py      :     4.033927
      dz2     :     1.957381  d :     9.870819
      dxz     :     1.985352
      dyz     :     1.985352
      dx2y2   :     1.957381
      dxy     :     1.985352
      f0      :     0.000003  f :     0.000021
      f+1     :     0.000003
      f-1     :     0.000003
      f+2     :     0.000003
      f-2     :     0.000003
      f+3     :     0.000003
      f-3     :     0.000003
  4 Cus       :     6.872346  s :     6.872346
      pz      :     4.090405  p :    12.271214
      px      :     4.090405
      py      :     4.090405
      dz2     :     1.963275  d :     9.836948
      dxz     :     1.970132
      dyz     :     1.970132
      dx2y2   :     1.963275
      dxy     :     1.970132
      f0      :     0.000004  f :     0.000023
      f+1     :     0.000003
      f-1     :     0.000003
      f+2     :     0.000003
      f-2     :     0.000003
      f+3     :     0.000003
      f-3     :     0.000003
  5 Cus       :     7.046846  s :     7.046846
      pz      :     4.033927  p :    12.101782
      px      :     4.033927
      py      :     4.033927
      dz2     :     1.957381  d :     9.870819
      dxz     :     1.985352
      dyz     :     1.985352
      dx2y2   :     1.957381
      dxy     :     1.985352
      f0      :     0.000003  f :     0.000021
      f+1     :     0.000003
      f-1     :     0.000003
      f+2     :     0.000003
      f-2     :     0.000003
      f+3     :     0.000003
      f-3     :     0.000003
  6 Cus       :     7.046846  s :     7.046846
      pz      :     4.033927  p :    12.101782
      px      :     4.033927
      py      :     4.033927
      dz2     :     1.957381  d :     9.870819
      dxz     :     1.985352
      dyz     :     1.985352
      dx2y2   :     1.957381
      dxy     :     1.985352
      f0      :     0.000003  f :     0.000021
      f+1     :     0.000003
      f-1     :     0.000003
      f+2     :     0.000003
      f-2     :     0.000003
      f+3     :     0.000003
      f-3     :     0.000003
  7 Cus       :     7.046846  s :     7.046846
      pz      :     4.033927  p :    12.101782
      px      :     4.033927
      py      :     4.033927
      dz2     :     1.957381  d :     9.870820
      dxz     :     1.985352
      dyz     :     1.985352
      dx2y2   :     1.957381
      dxy     :     1.985352
      f0      :     0.000003  f :     0.000021
      f+1     :     0.000003
      f-1     :     0.000003
      f+2     :     0.000003
      f-2     :     0.000003
      f+3     :     0.000003
      f-3     :     0.000003


                     *******************************
                     * LOEWDIN POPULATION ANALYSIS *
                     *******************************

----------------------
LOEWDIN ATOMIC CHARGES
----------------------
   0 Cu:   -0.061289
   1 Cu:   -0.061289
   2 Cu:   -0.061289
   3 Cu:    0.061289
   4 Cu:   -0.061289
   5 Cu:    0.061289
   6 Cu:    0.061289
   7 Cu:    0.061288

-------------------------------
LOEWDIN REDUCED ORBITAL CHARGES
-------------------------------
  0 Cus       :     6.643444  s :     6.643444
      pz      :     4.107070  p :    12.321209
      px      :     4.107070
      py      :     4.107070
      dz2     :     2.050645  d :    10.096607
      dxz     :     1.998439
      dyz     :     1.998439
      dx2y2   :     2.050645
      dxy     :     1.998439
      f0      :     0.000004  f :     0.000028
      f+1     :     0.000004
      f-1     :     0.000004
      f+2     :     0.000004
      f-2     :     0.000003
      f+3     :     0.000004
      f-3     :     0.000004
  1 Cus       :     6.643444  s :     6.643444
      pz      :     4.107070  p :    12.321209
      px      :     4.107070
      py      :     4.107070
      dz2     :     2.050645  d :    10.096607
      dxz     :     1.998439
      dyz     :     1.998439
      dx2y2   :     2.050645
      dxy     :     1.998439
      f0      :     0.000004  f :     0.000028
      f+1     :     0.000004
      f-1     :     0.000004
      f+2     :     0.000004
      f-2     :     0.000003
      f+3     :     0.000004
      f-3     :     0.000004
  2 Cus       :     6.643444  s :     6.643444
      pz      :     4.107070  p :    12.321209
      px      :     4.107070
      py      :     4.107070
      dz2     :     2.050645  d :    10.096607
      dxz     :     1.998439
      dyz     :     1.998439
      dx2y2   :     2.050645
      dxy     :     1.998439
      f0      :     0.000004  f :     0.000028
      f+1     :     0.000004
      f-1     :     0.000004
      f+2     :     0.000004
      f-2     :     0.000003
      f+3     :     0.000004
      f-3     :     0.000004
  3 Cus       :     6.808861  s :     6.808861
      pz      :     4.037048  p :    12.111143
      px      :     4.037048
      py      :     4.037048
      dz2     :     1.994034  d :    10.018681
      dxz     :     2.010204
      dyz     :     2.010204
      dx2y2   :     1.994034
      dxy     :     2.010204
      f0      :     0.000004  f :     0.000026
      f+1     :     0.000004
      f-1     :     0.000004
      f+2     :     0.000004
      f-2     :     0.000003
      f+3     :     0.000004
      f-3     :     0.000004
  4 Cus       :     6.643444  s :     6.643444
      pz      :     4.107070  p :    12.321209
      px      :     4.107070
      py      :     4.107070
      dz2     :     2.050645  d :    10.096608
      dxz     :     1.998439
      dyz     :     1.998439
      dx2y2   :     2.050645
      dxy     :     1.998439
      f0      :     0.000004  f :     0.000028
      f+1     :     0.000004
      f-1     :     0.000004
      f+2     :     0.000004
      f-2     :     0.000003
      f+3     :     0.000004
      f-3     :     0.000004
  5 Cus       :     6.808861  s :     6.808861
      pz      :     4.037048  p :    12.111143
      px      :     4.037048
      py      :     4.037048
      dz2     :     1.994034  d :    10.018681
      dxz     :     2.010204
      dyz     :     2.010204
      dx2y2   :     1.994034
      dxy     :     2.010204
      f0      :     0.000004  f :     0.000026
      f+1     :     0.000004
      f-1     :     0.000004
      f+2     :     0.000004
      f-2     :     0.000003
      f+3     :     0.000004
      f-3     :     0.000004
  6 Cus       :     6.808861  s :     6.808861
      pz      :     4.037048  p :    12.111143
      px      :     4.037048
      py      :     4.037048
      dz2     :     1.994034  d :    10.018681
      dxz     :     2.010204
      dyz     :     2.010204
      dx2y2   :     1.994034
      dxy     :     2.010204
      f0      :     0.000004  f :     0.000026
      f+1     :     0.000004
      f-1     :     0.000004
      f+2     :     0.000004
      f-2     :     0.000003
      f+3     :     0.000004
      f-3     :     0.000004
  7 Cus       :     6.808861  s :     6.808861
      pz      :     4.037048  p :    12.111143
      px      :     4.037048
      py      :     4.037048
      dz2     :     1.994034  d :    10.018681
      dxz     :     2.010204
      dyz     :     2.010204
      dx2y2   :     1.994034
      dxy     :     2.010204
      f0      :     0.000004  f :     0.000026
      f+1     :     0.000004
      f-1     :     0.000004
      f+2     :     0.000004
      f-2     :     0.000003
      f+3     :     0.000004
      f-3     :     0.000004


                      *****************************
                      * MAYER POPULATION ANALYSIS *
                      *****************************

  NA   - Mulliken gross atomic population
  ZA   - Total nuclear charge
  QA   - Mulliken gross atomic charge
  VA   - Mayer's total valence
  BVA  - Mayer's bonded valence
  FA   - Mayer's free valence

  ATOM       NA         ZA         QA         VA         BVA        FA
  0 Cu    28.9805    29.0000     0.0195     1.7463     1.7463     0.0000
  1 Cu    28.9805    29.0000     0.0195     1.7463     1.7463     0.0000
  2 Cu    28.9805    29.0000     0.0195     1.7463     1.7463    -0.0000
  3 Cu    29.0195    29.0000    -0.0195     1.3305     1.3305    -0.0000
  4 Cu    28.9805    29.0000     0.0195     1.7463     1.7463    -0.0000
  5 Cu    29.0195    29.0000    -0.0195     1.3305     1.3305    -0.0000
  6 Cu    29.0195    29.0000    -0.0195     1.3305     1.3305    -0.0000
  7 Cu    29.0195    29.0000    -0.0195     1.3305     1.3305    -0.0000

  Mayer bond orders larger than 0.100000
B(  0-Cu,  1-Cu) :   0.1764 B(  0-Cu,  2-Cu) :   0.1764 B(  0-Cu,  3-Cu) :   0.3587 
B(  0-Cu,  4-Cu) :   0.1764 B(  0-Cu,  5-Cu) :   0.3587 B(  0-Cu,  6-Cu) :   0.3587 
B(  0-Cu,  7-Cu) :   0.1409 B(  1-Cu,  2-Cu) :   0.1764 B(  1-Cu,  3-Cu) :   0.1409 
B(  1-Cu,  4-Cu) :   0.1764 B(  1-Cu,  5-Cu) :   0.3587 B(  1-Cu,  6-Cu) :   0.3587 
B(  1-Cu,  7-Cu) :   0.3587 B(  2-Cu,  3-Cu) :   0.3587 B(  2-Cu,  4-Cu) :   0.1764 
B(  2-Cu,  5-Cu) :   0.3587 B(  2-Cu,  6-Cu) :   0.1409 B(  2-Cu,  7-Cu) :   0.3587 
B(  3-Cu,  4-Cu) :   0.3587 B(  4-Cu,  5-Cu) :   0.1409 B(  4-Cu,  6-Cu) :   0.3587 
B(  4-Cu,  7-Cu) :   0.3587 

-------
TIMINGS
-------

Total SCF time: 0 days 0 hours 0 min 17 sec 

Total time                  ....      17.196 sec
Sum of individual times     ....      16.358 sec  ( 95.1%)

Fock matrix formation       ....      13.160 sec  ( 76.5%)
  Split-RI-J                ....       3.646 sec  ( 27.7% of F)
  XC integration            ....       3.512 sec  ( 26.7% of F)
    Basis function eval.    ....       0.635 sec  ( 18.1% of XC)
    Density eval.           ....       0.669 sec  ( 19.1% of XC)
    XC-Functional eval.     ....       0.088 sec  (  2.5% of XC)
    XC-Potential eval.      ....       0.549 sec  ( 15.6% of XC)
Diagonalization             ....       0.824 sec  (  4.8%)
Density matrix formation    ....       0.054 sec  (  0.3%)
Population analysis         ....       0.040 sec  (  0.2%)
Initial guess               ....       0.263 sec  (  1.5%)
Orbital Transformation      ....       0.000 sec  (  0.0%)
Orbital Orthonormalization  ....       0.000 sec  (  0.0%)
DIIS solution               ....       0.488 sec  (  2.8%)
Grid generation             ....       1.528 sec  (  8.9%)

Maximum memory used throughout the entire SCF-calculation: 36.7 MB


-------------------------------------------------------------------------------
                          DFT DISPERSION CORRECTION                            
                                                                               
                              DFTD3 V3.1  Rev 1                                
                          USING Becke-Johnson damping                          
-------------------------------------------------------------------------------
The PBE functional is recognized
Active option DFTDOPT                   ...         4   

molecular C6(AA) [au] = 11240.638246 


            DFT-D V3
 parameters
 s6 scaling factor         :     1.0000 
 a1 scaling factor         :     0.4289 
 s8 scaling factor         :     0.7875 
 a2 scaling factor         :     4.4407 
 ad hoc parameters k1-k3   :    16.0000     1.3333    -4.0000 

 Edisp/kcal,au: -13.657263168849  -0.021764231899 
 E6   /kcal   :  -7.001332561 
 E8   /kcal   :  -6.655930608 
 % E8         :  48.735464242 

-------------------------   ----------------
Dispersion correction           -0.021764232
-------------------------   ----------------


-------------------------   --------------------
FINAL SINGLE POINT ENERGY    -13122.498451594389
-------------------------   --------------------

No protocol specified


           ************************************************************
           *        Program running with 16 parallel MPI-processes    *
           *              working on a common directory               *
           ************************************************************
------------------------------------------------------------------------------
                         ORCA SCF GRADIENT CALCULATION
------------------------------------------------------------------------------

Gradient of the Kohn-Sham DFT energy:
Kohn-Sham wavefunction type      ... RKS
Hartree-Fock exchange scaling    ...    0.000
Number of operators              ...    1
Number of atoms                  ...    8
Basis set dimensions             ...  360
Integral neglect threshold       ... 2.5e-11
Integral primitive cutoff        ... 2.5e-12
SHARK Integral package           ... ON

Nuc. rep. gradient       (SHARK) ... done (  0.0 sec)
HCore & Overlap gradient (SHARK) ... done (  0.1 sec)
RI-J gradient            (SHARK) ... done (  1.1 sec)
Exchange-correlation gradient    ... done
Dispersion correction            ... done

------------------
CARTESIAN GRADIENT
------------------

   1   Cu  :   -0.019324426    0.019324442    0.019324439
   2   Cu  :   -0.019324418   -0.019324440   -0.019324448
   3   Cu  :    0.019324427    0.019324426   -0.019324442
   4   Cu  :    0.016928847    0.016928853    0.016928859
   5   Cu  :    0.019324432   -0.019324438    0.019324433
   6   Cu  :   -0.016928850    0.016928856   -0.016928854
   7   Cu  :   -0.016928845   -0.016928856    0.016928856
   8   Cu  :    0.016928833   -0.016928843   -0.016928843

Difference to translation invariance:
           :    0.0000000000    0.0000000000   -0.0000000000

Difference to rotation invariance:
           :    0.0000000109    0.0000000086   -0.0000000041

Norm of the cartesian gradient     ...    0.0889957101
RMS gradient                       ...    0.0181661732
MAX gradient                       ...    0.0193244482

-------
TIMINGS
-------

Total SCF gradient time            ...        3.736 sec

One electron gradient       ....       0.065 sec  (  1.8%)
RI-J Coulomb gradient       ....       1.135 sec  ( 30.4%)
XC gradient                 ....       1.011 sec  ( 27.1%)
CPCM gradient               ....       0.270 sec  (  7.2%)
   A-Matrix (El+Nuc)        ....       0.064 sec  (  1.7%)
   Potential                ....       0.206 sec  (  5.5%)

Maximum memory used throughout the entire SCFGRAD-calculation: 35.2 MB

                            ***************************************
                            *     ORCA property calculations      *
                            ***************************************

                                    ---------------------
                                    Active property flags
                                    ---------------------
   (+) Dipole Moment


------------------------------------------------------------------------------
                       ORCA ELECTRIC PROPERTIES CALCULATION
------------------------------------------------------------------------------

Dipole Moment Calculation                       ... on
Quadrupole Moment Calculation                   ... off
Polarizability Calculation                      ... off
GBWName                                         ... CU8_Td_0.gbw
Electron density                                ... CU8_Td_0.scfp
The origin for moment calculation is the CENTER OF MASS  = ( 0.000000,  0.000000  0.000000)

-------------
DIPOLE MOMENT
-------------
                                X             Y             Z
Electronic contribution:     -0.00000       0.00000       0.00000
Nuclear contribution   :      0.00000      -0.00000       0.00000
                        -----------------------------------------
Total Dipole Moment    :     -0.00000       0.00000       0.00000
                        -----------------------------------------
Magnitude (a.u.)       :      0.00000
Magnitude (Debye)      :      0.00001



--------------------
Rotational spectrum 
--------------------
 
Rotational constants in cm-1:     0.008925     0.008925     0.008925 
Rotational constants in MHz :   267.575193   267.575193   267.575193 

 Dipole components along the rotational axes: 
x,y,z [a.u.] :    -0.000001     0.000001     0.000002 
x,y,z [Debye]:    -0.000002     0.000003     0.000004 

 

----------------------------------------------------------------------------
                           ORCA NUMERICAL FREQUENCIES
                              (16-process run)
----------------------------------------------------------------------------

Number of atoms                ... 8
Central differences            ... used
Number of displacements        ... 48
Numerical increment            ... 5.000e-03 bohr
IR-spectrum generation         ... on
Raman-spectrum generation      ... off
Surface Crossing Hessian       ... off

The output will be reduced. Please look at the following files:
SCF program output             ... >CU8_Td_0.lastscf
Integral program output        ... >CU8_Td_0.lastint
Gradient program output        ... >CU8_Td_0.lastgrad
Dipole moment program output   ... >CU8_Td_0.lastmom
AutoCI program output          ... >CU8_Td_0.lastautoci

No protocol specified
No protocol specified
No protocol specified
	<< Calculating on displaced geometry   1 (of  48) >>
	<< Calculating on displaced geometry   7 (of  48) >>
	<< Calculating on displaced geometry   5 (of  48) >>
	<< Calculating on displaced geometry  15 (of  48) >>
	<< Calculating on displaced geometry   9 (of  48) >>
	<< Calculating on displaced geometry  12 (of  48) >>
	<< Calculating on displaced geometry  13 (of  48) >>
	<< Calculating on displaced geometry  10 (of  48) >>
	<< Calculating on displaced geometry  11 (of  48) >>
	<< Calculating on displaced geometry   8 (of  48) >>
	<< Calculating on displaced geometry   3 (of  48) >>
	<< Calculating on displaced geometry   2 (of  48) >>
	<< Calculating on displaced geometry  14 (of  48) >>
	<< Calculating on displaced geometry   4 (of  48) >>
	<< Calculating on displaced geometry   6 (of  48) >>
	<< Calculating on displaced geometry  16 (of  48) >>
	<< Calculating on displaced geometry  17 (of  48) >>
	<< Calculating on displaced geometry  18 (of  48) >>
	<< Calculating on displaced geometry  19 (of  48) >>
	<< Calculating on displaced geometry  20 (of  48) >>
	<< Calculating on displaced geometry  21 (of  48) >>
	<< Calculating on displaced geometry  22 (of  48) >>
	<< Calculating on displaced geometry  23 (of  48) >>
	<< Calculating on displaced geometry  24 (of  48) >>
	<< Calculating on displaced geometry  25 (of  48) >>
	<< Calculating on displaced geometry  26 (of  48) >>
	<< Calculating on displaced geometry  27 (of  48) >>
	<< Calculating on displaced geometry  28 (of  48) >>
	<< Calculating on displaced geometry  29 (of  48) >>
	<< Calculating on displaced geometry  31 (of  48) >>
	<< Calculating on displaced geometry  30 (of  48) >>
	<< Calculating on displaced geometry  32 (of  48) >>
	<< Calculating on displaced geometry  33 (of  48) >>
	<< Calculating on displaced geometry  35 (of  48) >>
	<< Calculating on displaced geometry  34 (of  48) >>
	<< Calculating on displaced geometry  37 (of  48) >>
	<< Calculating on displaced geometry  36 (of  48) >>
	<< Calculating on displaced geometry  38 (of  48) >>
	<< Calculating on displaced geometry  39 (of  48) >>
	<< Calculating on displaced geometry  40 (of  48) >>
	<< Calculating on displaced geometry  41 (of  48) >>
	<< Calculating on displaced geometry  42 (of  48) >>
	<< Calculating on displaced geometry  43 (of  48) >>
	<< Calculating on displaced geometry  44 (of  48) >>
	<< Calculating on displaced geometry  45 (of  48) >>
	<< Calculating on displaced geometry  46 (of  48) >>
	<< Calculating on displaced geometry  47 (of  48) >>
	<< Calculating on displaced geometry  48 (of  48) >>

-----------------------
VIBRATIONAL FREQUENCIES
-----------------------

Scaling factor for frequencies =  1.000000000 (already applied!)

   0:         0.00 cm**-1
   1:         0.00 cm**-1
   2:         0.00 cm**-1
   3:         0.00 cm**-1
   4:         0.00 cm**-1
   5:         0.00 cm**-1
   6:        -8.89 cm**-1 ***imaginary mode***
   7:        -8.89 cm**-1 ***imaginary mode***
   8:        -8.88 cm**-1 ***imaginary mode***
   9:        28.57 cm**-1
  10:        28.57 cm**-1
  11:        49.97 cm**-1
  12:        49.97 cm**-1
  13:        49.97 cm**-1
  14:        52.98 cm**-1
  15:        53.00 cm**-1
  16:        53.00 cm**-1
  17:        53.01 cm**-1
  18:        58.24 cm**-1
  19:        62.52 cm**-1
  20:        62.52 cm**-1
  21:        64.93 cm**-1
  22:        64.94 cm**-1
  23:        64.94 cm**-1


------------
NORMAL MODES
------------

These modes are the cartesian displacements weighted by the diagonal matrix
M(i,i)=1/sqrt(m[i]) where m[i] is the mass of the displaced atom
Thus, these vectors are normalized but *not* orthogonal

                  0          1          2          3          4          5    
      0       0.000000   0.000000   0.000000   0.000000   0.000000   0.000000
      1       0.000000   0.000000   0.000000   0.000000   0.000000   0.000000
      2       0.000000   0.000000   0.000000   0.000000   0.000000   0.000000
      3       0.000000   0.000000   0.000000   0.000000   0.000000   0.000000
      4       0.000000   0.000000   0.000000   0.000000   0.000000   0.000000
      5       0.000000   0.000000   0.000000   0.000000   0.000000   0.000000
      6       0.000000   0.000000   0.000000   0.000000   0.000000   0.000000
      7       0.000000   0.000000   0.000000   0.000000   0.000000   0.000000
      8       0.000000   0.000000   0.000000   0.000000   0.000000   0.000000
      9       0.000000   0.000000   0.000000   0.000000   0.000000   0.000000
     10       0.000000   0.000000   0.000000   0.000000   0.000000   0.000000
     11       0.000000   0.000000   0.000000   0.000000   0.000000   0.000000
     12       0.000000   0.000000   0.000000   0.000000   0.000000   0.000000
     13       0.000000   0.000000   0.000000   0.000000   0.000000   0.000000
     14       0.000000   0.000000   0.000000   0.000000   0.000000   0.000000
     15       0.000000   0.000000   0.000000   0.000000   0.000000   0.000000
     16       0.000000   0.000000   0.000000   0.000000   0.000000   0.000000
     17       0.000000   0.000000   0.000000   0.000000   0.000000   0.000000
     18       0.000000   0.000000   0.000000   0.000000   0.000000   0.000000
     19       0.000000   0.000000   0.000000   0.000000   0.000000   0.000000
     20       0.000000   0.000000   0.000000   0.000000   0.000000   0.000000
     21       0.000000   0.000000   0.000000   0.000000   0.000000   0.000000
     22       0.000000   0.000000   0.000000   0.000000   0.000000   0.000000
     23       0.000000   0.000000   0.000000   0.000000   0.000000   0.000000
                  6          7          8          9         10         11    
      0      -0.064260   0.083352   0.411505   0.112778  -0.355379  -0.436961
      1      -0.284024   0.294094   0.115362  -0.251341  -0.275298  -0.115072
      2       0.219736  -0.210737   0.296260   0.364105  -0.080099   0.112849
      3       0.064325  -0.083307  -0.411560   0.112611  -0.355225   0.356339
      4       0.299114   0.200554   0.225378   0.251325   0.275302   0.172234
      5      -0.363400  -0.117146   0.186317  -0.364065   0.080028   0.399968
      6       0.079323   0.411261  -0.070796  -0.112699   0.355307   0.137311
      7       0.284012  -0.294139  -0.115339  -0.251318  -0.275210  -0.046653
      8       0.363395   0.117098  -0.186206  -0.364004   0.080094  -0.461692
      9       0.039943  -0.051743  -0.255467  -0.050388   0.158782   0.007950
     10       0.185720   0.124441   0.139778  -0.112313  -0.122906   0.060726
     11      -0.225466  -0.072705   0.115488   0.162620  -0.035777  -0.005047
     12      -0.079445  -0.411316   0.070959  -0.112656   0.355270  -0.218278
     13      -0.299232  -0.200521  -0.225338   0.251426   0.275196  -0.333647
[...]
Numerical increment            ... 5.000e-03 bohr
IR-spectrum generation         ... on
Raman-spectrum generation      ... off
Surface Crossing Hessian       ... off

The output will be reduced. Please look at the following files:
SCF program output             ... >CU8_C2v_3.lastscf
Integral program output        ... >CU8_C2v_3.lastint
Gradient program output        ... >CU8_C2v_3.lastgrad
Dipole moment program output   ... >CU8_C2v_3.lastmom
AutoCI program output          ... >CU8_C2v_3.lastautoci

No protocol specified
No protocol specified
No protocol specified
	<< Calculating on displaced geometry   3 (of  48) >>
	<< Calculating on displaced geometry   2 (of  48) >>
	<< Calculating on displaced geometry   4 (of  48) >>
	<< Calculating on displaced geometry   8 (of  48) >>
	<< Calculating on displaced geometry   6 (of  48) >>
	<< Calculating on displaced geometry  13 (of  48) >>
	<< Calculating on displaced geometry  12 (of  48) >>
	<< Calculating on displaced geometry  14 (of  48) >>
	<< Calculating on displaced geometry   9 (of  48) >>
	<< Calculating on displaced geometry   1 (of  48) >>
	<< Calculating on displaced geometry  11 (of  48) >>
	<< Calculating on displaced geometry  15 (of  48) >>
	<< Calculating on displaced geometry   7 (of  48) >>
	<< Calculating on displaced geometry   5 (of  48) >>
	<< Calculating on displaced geometry  10 (of  48) >>
	<< Calculating on displaced geometry  16 (of  48) >>
	<< Calculating on displaced geometry  17 (of  48) >>
	<< Calculating on displaced geometry  18 (of  48) >>
	<< Calculating on displaced geometry  19 (of  48) >>
	<< Calculating on displaced geometry  20 (of  48) >>
	<< Calculating on displaced geometry  21 (of  48) >>
	<< Calculating on displaced geometry  22 (of  48) >>
	<< Calculating on displaced geometry  23 (of  48) >>
	<< Calculating on displaced geometry  24 (of  48) >>
	<< Calculating on displaced geometry  25 (of  48) >>
	<< Calculating on displaced geometry  26 (of  48) >>
	<< Calculating on displaced geometry  27 (of  48) >>
	<< Calculating on displaced geometry  28 (of  48) >>
	<< Calculating on displaced geometry  29 (of  48) >>
	<< Calculating on displaced geometry  30 (of  48) >>
	<< Calculating on displaced geometry  31 (of  48) >>
	<< Calculating on displaced geometry  32 (of  48) >>
	<< Calculating on displaced geometry  33 (of  48) >>
	<< Calculating on displaced geometry  34 (of  48) >>
	<< Calculating on displaced geometry  35 (of  48) >>
	<< Calculating on displaced geometry  36 (of  48) >>
	<< Calculating on displaced geometry  37 (of  48) >>
	<< Calculating on displaced geometry  38 (of  48) >>
	<< Calculating on displaced geometry  39 (of  48) >>
	<< Calculating on displaced geometry  40 (of  48) >>
	<< Calculating on displaced geometry  41 (of  48) >>
	<< Calculating on displaced geometry  42 (of  48) >>
	<< Calculating on displaced geometry  43 (of  48) >>
	<< Calculating on displaced geometry  44 (of  48) >>
	<< Calculating on displaced geometry  45 (of  48) >>
	<< Calculating on displaced geometry  46 (of  48) >>
	<< Calculating on displaced geometry  47 (of  48) >>
	<< Calculating on displaced geometry  48 (of  48) >>

-----------------------
VIBRATIONAL FREQUENCIES
-----------------------

Scaling factor for frequencies =  1.000000000 (already applied!)

   0:         0.00 cm**-1
   1:         0.00 cm**-1
   2:         0.00 cm**-1
   3:         0.00 cm**-1
   4:         0.00 cm**-1
   5:         0.00 cm**-1
   6:       -86.24 cm**-1 ***imaginary mode***
   7:       -54.55 cm**-1 ***imaginary mode***
   8:       -51.29 cm**-1 ***imaginary mode***
   9:       -44.15 cm**-1 ***imaginary mode***
  10:       -29.89 cm**-1 ***imaginary mode***
  11:       -20.46 cm**-1 ***imaginary mode***
  12:        14.99 cm**-1
  13:        30.75 cm**-1
  14:        36.36 cm**-1
  15:        51.76 cm**-1
  16:        62.21 cm**-1
  17:        62.36 cm**-1
  18:        64.53 cm**-1
  19:        64.96 cm**-1
  20:        70.25 cm**-1
  21:        73.61 cm**-1
  22:        83.71 cm**-1
  23:        85.14 cm**-1


------------
NORMAL MODES
------------

These modes are the cartesian displacements weighted by the diagonal matrix
M(i,i)=1/sqrt(m[i]) where m[i] is the mass of the displaced atom
Thus, these vectors are normalized but *not* orthogonal

                  0          1          2          3          4          5    
      0       0.000000   0.000000   0.000000   0.000000   0.000000   0.000000
      1       0.000000   0.000000   0.000000   0.000000   0.000000   0.000000
      2       0.000000   0.000000   0.000000   0.000000   0.000000   0.000000
      3       0.000000   0.000000   0.000000   0.000000   0.000000   0.000000
      4       0.000000   0.000000   0.000000   0.000000   0.000000   0.000000
      5       0.000000   0.000000   0.000000   0.000000   0.000000   0.000000
      6       0.000000   0.000000   0.000000   0.000000   0.000000   0.000000
      7       0.000000   0.000000   0.000000   0.000000   0.000000   0.000000
      8       0.000000   0.000000   0.000000   0.000000   0.000000   0.000000
      9       0.000000   0.000000   0.000000   0.000000   0.000000   0.000000
     10       0.000000   0.000000   0.000000   0.000000   0.000000   0.000000
     11       0.000000   0.000000   0.000000   0.000000   0.000000   0.000000
     12       0.000000   0.000000   0.000000   0.000000   0.000000   0.000000
     13       0.000000   0.000000   0.000000   0.000000   0.000000   0.000000
     14       0.000000   0.000000   0.000000   0.000000   0.000000   0.000000
     15       0.000000   0.000000   0.000000   0.000000   0.000000   0.000000
     16       0.000000   0.000000   0.000000   0.000000   0.000000   0.000000
     17       0.000000   0.000000   0.000000   0.000000   0.000000   0.000000
     18       0.000000   0.000000   0.000000   0.000000   0.000000   0.000000
     19       0.000000   0.000000   0.000000   0.000000   0.000000   0.000000
     20       0.000000   0.000000   0.000000   0.000000   0.000000   0.000000
     21       0.000000   0.000000   0.000000   0.000000   0.000000   0.000000
     22       0.000000   0.000000   0.000000   0.000000   0.000000   0.000000
     23       0.000000   0.000000   0.000000   0.000000   0.000000   0.000000
                  6          7          8          9         10         11    
      0       0.030953  -0.066567  -0.122325  -0.071307   0.001815   0.007444
      1      -0.032721   0.074303  -0.109540   0.076838  -0.005176  -0.014825
      2       0.461730  -0.518592  -0.004888  -0.456950   0.055124  -0.253956
      3       0.270793   0.031610  -0.437887   0.178991  -0.052627  -0.008304
      4      -0.273929   0.017020   0.444400  -0.188516  -0.026478   0.012737
      5       0.002094   0.136837  -0.007099  -0.002090  -0.016847   0.431691
      6       0.271212  -0.031609   0.438168   0.178230   0.052037   0.007419
      7      -0.274187  -0.017470  -0.444419  -0.187578   0.027114  -0.012796
      8      -0.002082   0.137232  -0.007196   0.002562  -0.016199   0.433274
      9      -0.075485   0.214397   0.051085   0.158819   0.105600  -0.187873
     10       0.076708   0.212203  -0.045440  -0.164886   0.098126  -0.180516
     11       0.001349   0.304352   0.004371  -0.005586   0.240712  -0.296353
     12       0.031036   0.066727   0.122159  -0.071760  -0.001214  -0.006543
     13      -0.032674  -0.074174   0.109672   0.076664   0.004997   0.015199
     14      -0.461465  -0.518646  -0.003597   0.456929   0.054566  -0.254436
     15      -0.226712   0.076800  -0.183026  -0.266305  -0.412978  -0.198147
     16       0.230038  -0.073960  -0.213113   0.276860   0.406911   0.197987
     17      -0.143402   0.077183   0.006847  -0.115994  -0.279187   0.117560
     18      -0.075452  -0.214421  -0.050743   0.159086  -0.105939   0.187645
     19       0.076797  -0.212149   0.045007  -0.164883  -0.097916   0.180515
     20      -0.001447   0.304453   0.004430   0.005637   0.240908  -0.295565
     21      -0.226345  -0.076937   0.182569  -0.265755   0.413305   0.198359
     22       0.229967   0.074228   0.213433   0.275501  -0.407578  -0.198301
     23       0.143224   0.077181   0.007131   0.115493  -0.279077   0.117785
                 12         13         14         15         16         17    
      0       0.227742  -0.252084   0.059572  -0.067719  -0.044737   0.189105
      1       0.212495   0.252318   0.087317   0.069909  -0.111309  -0.175631
      2       0.007753  -0.009808   0.000566  -0.146825  -0.001993   0.053190
      3      -0.072546   0.236024  -0.206327  -0.034957   0.151185   0.083065
      4      -0.058741  -0.213555  -0.233109  -0.020623  -0.103228   0.134001
      5      -0.259008   0.027462  -0.520373  -0.149196   0.055064   0.330683
      6      -0.072783   0.236178  -0.206582   0.034703  -0.150836  -0.081434
      7      -0.058889  -0.213564  -0.233609   0.020467   0.103497  -0.132399
      8       0.258095  -0.027318   0.519992  -0.149087   0.054960   0.330644
      9      -0.169476  -0.071084   0.130788  -0.430100   0.410849  -0.112791
     10      -0.167102   0.049105   0.140147  -0.364191  -0.485005   0.061078
     11      -0.519474  -0.032960   0.288157   0.351368   0.037072   0.083189
     12       0.227754  -0.251765   0.059331   0.067783   0.044997  -0.189120
     13       0.212623   0.252409   0.087569  -0.069777   0.111633   0.176607
     14      -0.006857   0.009660   0.000269  -0.146928  -0.001982   0.052860
     15       0.015036   0.086545   0.016593   0.030483  -0.099687   0.189829
     16       0.013044  -0.087666   0.005519  -0.006439  -0.160598  -0.139285
     17      -0.011329   0.496844   0.034007  -0.055430  -0.089837  -0.466698
     18      -0.169926  -0.070921   0.130631   0.430108  -0.410956   0.112750
     19      -0.167310   0.049219   0.139897   0.364108   0.484871  -0.061640
     20       0.519817   0.032915  -0.287963   0.351362   0.036598   0.082690
     21       0.014197   0.087108   0.015995  -0.030301   0.099185  -0.191403
     22       0.013881  -0.088265   0.006268   0.006544   0.160138   0.137269
     23       0.011003  -0.496796  -0.034655  -0.055265  -0.089883  -0.466558
                 18         19         20         21         22         23    
      0       0.042873  -0.349464   0.421348   0.338360   0.435593  -0.176425
      1       0.199505   0.301139   0.452263   0.331677  -0.401551   0.171481
      2       0.042013   0.191180   0.004938  -0.001168  -0.108835   0.046118
      3       0.264868  -0.099984  -0.006481  -0.152638   0.139718   0.465636
      4       0.272955  -0.032014   0.005205  -0.152196   0.147021   0.460626
      5      -0.162965   0.038275   0.012523   0.292685  -0.179267  -0.044055
      6       0.265518  -0.100074   0.006815  -0.152941  -0.139606  -0.465275
      7       0.273749  -0.032030  -0.004985  -0.152729  -0.147004  -0.460307
      8       0.161192  -0.038268   0.013160  -0.292721  -0.179298  -0.044039
      9       0.028302   0.251495  -0.000268  -0.177496  -0.020933  -0.016471
     10      -0.090881  -0.240756  -0.012212  -0.170198  -0.012072  -0.008053
     11       0.115415  -0.022601  -0.001901   0.288614   0.069255  -0.015709
     12       0.043537  -0.349687  -0.422140   0.337470  -0.435524   0.176058
     13       0.198226   0.301112  -0.453175   0.330333   0.401480  -0.171846
     14      -0.042392  -0.191208   0.004980   0.001224  -0.108904   0.046125
     15      -0.337037   0.198116  -0.237599  -0.008084  -0.082979  -0.050783
     16      -0.380946  -0.028325  -0.244863  -0.008346   0.061615   0.058167
     17      -0.064548  -0.276228  -0.016168   0.004729   0.218909   0.013465
     18       0.028355   0.251183   0.000526  -0.177320   0.020855   0.016670
     19      -0.091128  -0.240786   0.012767  -0.170510   0.012155   0.008206
     20      -0.115770   0.022614  -0.001043  -0.288760   0.069319  -0.015450
     21      -0.336415   0.198415   0.237799  -0.007351   0.082878   0.050589
     22      -0.381479  -0.028341   0.245000  -0.008031  -0.061644  -0.058274
     23       0.067055   0.276236  -0.016488  -0.004601   0.218822   0.013546


-----------
IR SPECTRUM
-----------

 Mode   freq       eps      Int      T**2         TX        TY        TZ
       cm**-1   L/(mol*cm) km/mol    a.u.
----------------------------------------------------------------------------
 12:     14.99   0.001657    8.38  0.034504  (-0.133620 -0.129034  0.000402)
 13:     30.75   0.000909    4.59  0.009228  ( 0.067533 -0.068318 -0.000103)
 14:     36.36   0.000227    1.15  0.001946  (-0.026822 -0.035027  0.000239)
 15:     51.76   0.002467   12.47  0.014876  (-0.000008 -0.000009 -0.121968)
 16:     62.21   0.000008    0.04  0.000039  ( 0.000028  0.000013  0.006255)
 17:     62.36   0.000978    4.94  0.004892  ( 0.000087  0.000092  0.069946)
 18:     64.53   0.000339    1.71  0.001640  ( 0.023373  0.033076 -0.000188)
 19:     64.96   0.000184    0.93  0.000885  (-0.026711  0.013110  0.000012)
 20:     70.25   0.000002    0.01  0.000007  ( 0.000070  0.000001 -0.002582)
 21:     73.61   0.000506    2.56  0.002146  (-0.032031 -0.033467 -0.000005)
 22:     83.71   0.000257    1.30  0.000957  ( 0.000015  0.000012  0.030929)
 23:     85.14   0.000251    1.27  0.000921  ( 0.000018  0.000041  0.030355)

* The epsilon (eps) is given for a Dirac delta lineshape.
** The dipole moment derivative (T) already includes vibrational overlap.

The first frequency considered to be a vibration is 12
The total number of vibrations considered is 12


--------------------------
THERMOCHEMISTRY AT 298.15K
--------------------------

Temperature         ... 298.15 K
Pressure            ... 1.00 atm
Total Mass          ... 508.40 AMU

Throughout the following assumptions are being made:
  (1) The electronic state is orbitally nondegenerate
      but the spin degeneracy is treated
  (2) There are no thermally accessible electronically excited states
  (3) Hindered rotations indicated by low frequency modes are not
      treated as such but are treated as vibrations and this may
      cause some error
  (4) All equations used are the standard statistical mechanics
      equations for an ideal gas
  (5) All vibrations are strictly harmonic

freq.      14.99  E(vib)   ...       0.57 
freq.      30.75  E(vib)   ...       0.55 
freq.      36.36  E(vib)   ...       0.54 
freq.      51.76  E(vib)   ...       0.52 
freq.      62.21  E(vib)   ...       0.51 
freq.      62.36  E(vib)   ...       0.51 
freq.      64.53  E(vib)   ...       0.51 
freq.      64.96  E(vib)   ...       0.50 
freq.      70.25  E(vib)   ...       0.50 
freq.      73.61  E(vib)   ...       0.49 
freq.      83.71  E(vib)   ...       0.48 
freq.      85.14  E(vib)   ...       0.48 

------------
INNER ENERGY
------------

The inner energy is: U= E(el) + E(ZPE) + E(vib) + E(rot) + E(trans)
    E(el)   - is the total energy from the electronic structure calculation
              = E(kin-el) + E(nuc-el) + E(el-el) + E(nuc-nuc)
    E(ZPE)  - the the zero temperature vibrational energy from the frequency calculation
    E(vib)  - the the finite temperature correction to E(ZPE) due to population
              of excited vibrational states
    E(rot)  - is the rotational thermal energy
    E(trans)- is the translational thermal energy

Summary of contributions to the inner energy U:
Electronic energy                ... -13121.99945469 Eh
Zero point energy                ...      0.00159615 Eh       1.00 kcal/mol
Thermal vibrational correction   ...      0.00981834 Eh       6.16 kcal/mol
Thermal rotational correction    ...      0.00141627 Eh       0.89 kcal/mol
Thermal translational correction ...      0.00141627 Eh       0.89 kcal/mol
-----------------------------------------------------------------------
Total thermal energy                 -13121.98520765 Eh


Summary of corrections to the electronic energy:
(perhaps to be used in another calculation)
Total thermal correction                  0.01265088 Eh       7.94 kcal/mol
Non-thermal (ZPE) correction              0.00159615 Eh       1.00 kcal/mol
-----------------------------------------------------------------------
Total correction                          0.01424703 Eh       8.94 kcal/mol


--------
ENTHALPY
--------

The enthalpy is H = U + kB*T
                kB is Boltzmann's constant
Total free energy                 ... -13121.98520765 Eh 
Thermal Enthalpy correction       ...      0.00094421 Eh       0.59 kcal/mol
-----------------------------------------------------------------------
Total Enthalpy                    ... -13121.98426344 Eh


Note: Only C1 symmetry has been detected, increase convergence thresholds 
      if your molecule has a higher symmetry. Symmetry factor of 1.0 is   
      used for the rotational entropy correction. 
 

Note: Rotational entropy computed according to Herzberg 
Infrared and Raman Spectra, Chapter V,1, Van Nostrand Reinhold, 1945 
Point Group:  C1, Symmetry Number:   1  
Rotational constants in cm-1:     0.010816     0.006873     0.005511 

Vibrational entropy computed according to the QRRHO of S. Grimme
Chem.Eur.J. 2012 18 9955


-------
ENTROPY
-------

The entropy contributions are T*S = T*(S(el)+S(vib)+S(rot)+S(trans))
     S(el)   - electronic entropy
     S(vib)  - vibrational entropy
     S(rot)  - rotational entropy
     S(trans)- translational entropy
The entropies will be listed as multiplied by the temperature to get
units of energy

Electronic entropy                ...      0.00065446 Eh      0.41 kcal/mol
Vibrational entropy               ...      0.02061366 Eh     12.94 kcal/mol
Rotational entropy                ...      0.01645428 Eh     10.33 kcal/mol
Translational entropy             ...      0.02117424 Eh     13.29 kcal/mol
-----------------------------------------------------------------------
Final entropy term                ...      0.05889664 Eh     36.96 kcal/mol

In case the symmetry of your molecule has not been determined correctly
or in case you have a reason to use a different symmetry number we print 
out the resulting rotational entropy values for sn=1,12 :
 --------------------------------------------------------
|  sn= 1 | S(rot)=       0.01645428 Eh     10.33 kcal/mol|
|  sn= 2 | S(rot)=       0.01579983 Eh      9.91 kcal/mol|
|  sn= 3 | S(rot)=       0.01541700 Eh      9.67 kcal/mol|
|  sn= 4 | S(rot)=       0.01514537 Eh      9.50 kcal/mol|
|  sn= 5 | S(rot)=       0.01493468 Eh      9.37 kcal/mol|
|  sn= 6 | S(rot)=       0.01476254 Eh      9.26 kcal/mol|
|  sn= 7 | S(rot)=       0.01461699 Eh      9.17 kcal/mol|
|  sn= 8 | S(rot)=       0.01449092 Eh      9.09 kcal/mol|
|  sn= 9 | S(rot)=       0.01437971 Eh      9.02 kcal/mol|
|  sn=10 | S(rot)=       0.01428023 Eh      8.96 kcal/mol|
|  sn=11 | S(rot)=       0.01419024 Eh      8.90 kcal/mol|
|  sn=12 | S(rot)=       0.01410808 Eh      8.85 kcal/mol|
 --------------------------------------------------------


-------------------
GIBBS FREE ENERGY
-------------------

The Gibbs free energy is G = H - T*S

Total enthalpy                    ... -13121.98426344 Eh 
Total entropy correction          ...     -0.05889664 Eh    -36.96 kcal/mol
-----------------------------------------------------------------------
Final Gibbs free energy         ... -13122.04316008 Eh

For completeness - the Gibbs free energy minus the electronic energy
G-E(el)                           ...     -0.04370540 Eh    -27.43 kcal/mol


No protocol specified

Timings for individual modules:

Sum of individual times         ...      398.810 sec (=   6.647 min)
GTO integral calculation        ...        2.561 sec (=   0.043 min)   0.6 %
SCF iterations                  ...       51.252 sec (=   0.854 min)  12.9 %
SCF Gradient evaluation         ...        9.453 sec (=   0.158 min)   2.4 %
Numerical frequency calculation ...      335.545 sec (=   5.592 min)  84.1 %



                             ****ORCA TERMINATED NORMALLY****
TOTAL RUN TIME: 0 days 0 hours 23 minutes 43 seconds 667 msec
