
                                 *****************
                                 * O   R   C   A *
                                 *****************

                                            #,                                       
                                            ###                                      
                                            ####                                     
                                            #####                                    
                                            ######                                   
                                           ########,                                 
                                     ,,################,,,,,                         
                               ,,#################################,,                 
                          ,,##########################################,,             
                       ,#########################################, ''#####,          
                    ,#############################################,,   '####,        
                  ,##################################################,,,,####,       
                ,###########''''           ''''###############################       
              ,#####''   ,,,,##########,,,,          '''####'''          '####       
            ,##' ,,,,###########################,,,                        '##       
           ' ,,###''''                  '''############,,,                           
         ,,##''                                '''############,,,,        ,,,,,,###''
      ,#''                                            '''#######################'''  
     '                                                          ''''####''''         
             ,#######,   #######,   ,#######,      ##                                
            ,#'     '#,  ##    ##  ,#'     '#,    #''#        ######   ,####,        
            ##       ##  ##   ,#'  ##            #'  '#       #        #'  '#        
            ##       ##  #######   ##           ,######,      #####,   #    #        
            '#,     ,#'  ##    ##  '#,     ,#' ,#      #,         ##   #,  ,#        
             '#######'   ##     ##  '#######'  #'      '#     #####' # '####'        



                  #######################################################
                  #                        -***-                        #
                  #          Department of theory and spectroscopy      #
                  #    Directorship and core code : Frank Neese         #
                  #        Max Planck Institute fuer Kohlenforschung    #
                  #                Kaiser Wilhelm Platz 1               #
                  #                 D-45470 Muelheim/Ruhr               #
                  #                      Germany                        #
                  #                                                     #
                  #                  All rights reserved                #
                  #                        -***-                        #
                  #######################################################


                         Program Version 5.0.2 -  RELEASE  -


 With contributions from (in alphabetic order):
   Daniel Aravena         : Magnetic Suceptibility
   Michael Atanasov       : Ab Initio Ligand Field Theory (pilot matlab implementation)
   Alexander A. Auer      : GIAO ZORA, VPT2 properties, NMR spectrum
   Ute Becker             : Parallelization
   Giovanni Bistoni       : ED, misc. LED, open-shell LED, HFLD
   Martin Brehm           : Molecular dynamics
   Dmytro Bykov           : SCF Hessian
   Vijay G. Chilkuri      : MRCI spin determinant printing, contributions to CSF-ICE
   Dipayan Datta          : RHF DLPNO-CCSD density
   Achintya Kumar Dutta   : EOM-CC, STEOM-CC
   Dmitry Ganyushin       : Spin-Orbit,Spin-Spin,Magnetic field MRCI
   Miquel Garcia          : C-PCM and meta-GGA Hessian, CC/C-PCM, Gaussian charge scheme
   Yang Guo               : DLPNO-NEVPT2, F12-NEVPT2, CIM, IAO-localization
   Andreas Hansen         : Spin unrestricted coupled pair/coupled cluster methods
   Benjamin Helmich-Paris : MC-RPA, TRAH-SCF, COSX integrals
   Lee Huntington         : MR-EOM, pCC
   Robert Izsak           : Overlap fitted RIJCOSX, COSX-SCS-MP3, EOM
   Marcus Kettner         : VPT2
   Christian Kollmar      : KDIIS, OOCD, Brueckner-CCSD(T), CCSD density, CASPT2, CASPT2-K
   Simone Kossmann        : Meta GGA functionals, TD-DFT gradient, OOMP2, MP2 Hessian
   Martin Krupicka        : Initial AUTO-CI
   Lucas Lang             : DCDCAS
   Marvin Lechner         : AUTO-CI (C++ implementation), FIC-MRCC
   Dagmar Lenk            : GEPOL surface, SMD
   Dimitrios Liakos       : Extrapolation schemes; Compound Job, initial MDCI parallelization
   Dimitrios Manganas     : Further ROCIS development; embedding schemes
   Dimitrios Pantazis     : SARC Basis sets
   Anastasios Papadopoulos: AUTO-CI, single reference methods and gradients
   Taras Petrenko         : DFT Hessian,TD-DFT gradient, ASA, ECA, R-Raman, ABS, FL, XAS/XES, NRVS
   Peter Pinski           : DLPNO-MP2, DLPNO-MP2 Gradient
   Christoph Reimann      : Effective Core Potentials
   Marius Retegan         : Local ZFS, SOC
   Christoph Riplinger    : Optimizer, TS searches, QM/MM, DLPNO-CCSD(T), (RO)-DLPNO pert. Triples
   Tobias Risthaus        : Range-separated hybrids, TD-DFT gradient, RPA, STAB
   Michael Roemelt        : Original ROCIS implementation
   Masaaki Saitow         : Open-shell DLPNO-CCSD energy and density
   Barbara Sandhoefer     : DKH picture change effects
   Avijit Sen             : IP-ROCIS
   Kantharuban Sivalingam : CASSCF convergence, NEVPT2, FIC-MRCI
   Bernardo de Souza      : ESD, SOC TD-DFT
   Georgi Stoychev        : AutoAux, RI-MP2 NMR, DLPNO-MP2 response
   Willem Van den Heuvel  : Paramagnetic NMR
   Boris Wezisla          : Elementary symmetry handling
   Frank Wennmohs         : Technical directorship


 We gratefully acknowledge several colleagues who have allowed us to
 interface, adapt or use parts of their codes:
   Stefan Grimme, W. Hujo, H. Kruse, P. Pracht,  : VdW corrections, initial TS optimization,
                  C. Bannwarth, S. Ehlert          DFT functionals, gCP, sTDA/sTD-DF
   Ed Valeev, F. Pavosevic, A. Kumar             : LibInt (2-el integral package), F12 methods
   Garnet Chan, S. Sharma, J. Yang, R. Olivares  : DMRG
   Ulf Ekstrom                                   : XCFun DFT Library
   Mihaly Kallay                                 : mrcc  (arbitrary order and MRCC methods)
   Jiri Pittner, Ondrej Demel                    : Mk-CCSD
   Frank Weinhold                                : gennbo (NPA and NBO analysis)
   Christopher J. Cramer and Donald G. Truhlar   : smd solvation model
   Lars Goerigk                                  : TD-DFT with DH, B97 family of functionals
   V. Asgeirsson, H. Jonsson                     : NEB implementation
   FAccTs GmbH                                   : IRC, NEB, NEB-TS, DLPNO-Multilevel, CI-OPT
                                                   MM, QMMM, 2- and 3-layer-ONIOM, Crystal-QMMM,
                                                   LR-CPCM, SF, NACMEs, symmetry and pop. for TD-DFT,
                                                   nearIR, NL-DFT gradient (VV10), updates on ESD,
                                                   ML-optimized integration grids
   S Lehtola, MJT Oliveira, MAL Marques          : LibXC Library
   Liviu Ungur et al                             : ANISO software


 Your calculation uses the libint2 library for the computation of 2-el integrals
 For citations please refer to: http://libint.valeyev.net

 Your ORCA version has been built with support for libXC version: 5.1.0
 For citations please refer to: https://tddft.org/programs/libxc/

 This ORCA versions uses:
   CBLAS   interface :  Fast vector & matrix operations
   LAPACKE interface :  Fast linear algebra routines
   SCALAPACK package :  Parallel linear algebra routines
   Shared memory     :  Shared parallel matrices
   BLAS/LAPACK       :  OpenBLAS 0.3.15  USE64BITINT DYNAMIC_ARCH NO_AFFINITY Haswell SINGLE_THREADED
        Core in use  :  Haswell
   Copyright (c) 2011-2014, The OpenBLAS Project


Your calculation utilizes the atom-pairwise dispersion correction
with the Becke-Johnson damping scheme (D3BJ)
Cite in your paper:
S.Grimme, S.Ehrlich, L.Goerigk, J Comput Chem, (2011), 32, 1456–1465 
S.Grimme, J.Antony, S.Ehrlich and H.Krieg, J.Chem.Phys., 132, (2010), 154104 
   

================================================================================

----- Orbital basis set information -----
Your calculation utilizes the basis: def2-TZVP
   F. Weigend and R. Ahlrichs, Phys. Chem. Chem. Phys. 7, 3297 (2005).

----- AuxJ basis set information -----
Your calculation utilizes the auxiliary basis: def2/J
   F. Weigend, Phys. Chem. Chem. Phys. 8, 1057 (2006).

================================================================================
                                        WARNINGS
                       Please study these warnings very carefully!
================================================================================


WARNING: your system is open-shell and RHF/RKS was chosen
  ===> : WILL SWITCH to UHF/UKS


WARNING: The environment variable RSH_COMMAND is not set!
  ===> : All Displacements for the Numerical Hessian or Gradient calculation
         will be started on localhost

INFO   : the flag for use of the SHARK integral package has been found!

Your calculation utilizes the atom-pairwise dispersion correction
with the Becke-Johnson damping scheme (D3BJ)
Cite in your paper:
S.Grimme, S.Ehrlich, L.Goerigk, J Comput Chem, (2011), 32, 1456–1465 
S.Grimme, J.Antony, S.Ehrlich and H.Krieg, J.Chem.Phys., 132, (2010), 154104 
   

================================================================================

----- Orbital basis set information -----
Your calculation utilizes the basis: def2-TZVP
   F. Weigend and R. Ahlrichs, Phys. Chem. Chem. Phys. 7, 3297 (2005).

----- AuxJ basis set information -----
Your calculation utilizes the auxiliary basis: def2/J
   F. Weigend, Phys. Chem. Chem. Phys. 8, 1057 (2006).

================================================================================
                                        WARNINGS
                       Please study these warnings very carefully!
================================================================================


WARNING: MOInp is set but Guess=PModel. MOInp will be ignored!
         To read the initial guess from a file you must also specify
         'MORead' in the simple input or 'Guess MORead' in the %scf block


WARNING: The environment variable RSH_COMMAND is not set!
  ===> : All Displacements for the Numerical Hessian or Gradient calculation
         will be started on localhost

INFO   : the flag for use of the SHARK integral package has been found!

Your calculation utilizes the atom-pairwise dispersion correction
with the Becke-Johnson damping scheme (D3BJ)
Cite in your paper:
S.Grimme, S.Ehrlich, L.Goerigk, J Comput Chem, (2011), 32, 1456–1465 
S.Grimme, J.Antony, S.Ehrlich and H.Krieg, J.Chem.Phys., 132, (2010), 154104 
   

================================================================================

----- Orbital basis set information -----
Your calculation utilizes the basis: def2-TZVP
   F. Weigend and R. Ahlrichs, Phys. Chem. Chem. Phys. 7, 3297 (2005).

----- AuxJ basis set information -----
Your calculation utilizes the auxiliary basis: def2/J
   F. Weigend, Phys. Chem. Chem. Phys. 8, 1057 (2006).

================================================================================
                                        WARNINGS
                       Please study these warnings very carefully!
================================================================================


WARNING: MOInp is set but Guess=PModel. MOInp will be ignored!
         To read the initial guess from a file you must also specify
         'MORead' in the simple input or 'Guess MORead' in the %scf block


WARNING: The environment variable RSH_COMMAND is not set!
  ===> : All Displacements for the Numerical Hessian or Gradient calculation
         will be started on localhost

INFO   : the flag for use of the SHARK integral package has been found!

Your calculation utilizes the atom-pairwise dispersion correction
with the Becke-Johnson damping scheme (D3BJ)
Cite in your paper:
S.Grimme, S.Ehrlich, L.Goerigk, J Comput Chem, (2011), 32, 1456–1465 
S.Grimme, J.Antony, S.Ehrlich and H.Krieg, J.Chem.Phys., 132, (2010), 154104 
   

================================================================================

----- Orbital basis set information -----
Your calculation utilizes the basis: def2-TZVP
   F. Weigend and R. Ahlrichs, Phys. Chem. Chem. Phys. 7, 3297 (2005).

----- AuxJ basis set information -----
Your calculation utilizes the auxiliary basis: def2/J
   F. Weigend, Phys. Chem. Chem. Phys. 8, 1057 (2006).

================================================================================
                                        WARNINGS
                       Please study these warnings very carefully!
================================================================================


WARNING: MOInp is set but Guess=PModel. MOInp will be ignored!
         To read the initial guess from a file you must also specify
         'MORead' in the simple input or 'Guess MORead' in the %scf block


WARNING: The environment variable RSH_COMMAND is not set!
  ===> : All Displacements for the Numerical Hessian or Gradient calculation
         will be started on localhost

INFO   : the flag for use of the SHARK integral package has been found!

Your calculation utilizes the atom-pairwise dispersion correction
with the Becke-Johnson damping scheme (D3BJ)
Cite in your paper:
S.Grimme, S.Ehrlich, L.Goerigk, J Comput Chem, (2011), 32, 1456–1465 
S.Grimme, J.Antony, S.Ehrlich and H.Krieg, J.Chem.Phys., 132, (2010), 154104 
   

================================================================================

----- Orbital basis set information -----
Your calculation utilizes the basis: def2-TZVP
   F. Weigend and R. Ahlrichs, Phys. Chem. Chem. Phys. 7, 3297 (2005).

----- AuxJ basis set information -----
Your calculation utilizes the auxiliary basis: def2/J
   F. Weigend, Phys. Chem. Chem. Phys. 8, 1057 (2006).

================================================================================
                                        WARNINGS
                       Please study these warnings very carefully!
================================================================================


WARNING: MOInp is set but Guess=PModel. MOInp will be ignored!
         To read the initial guess from a file you must also specify
         'MORead' in the simple input or 'Guess MORead' in the %scf block


WARNING: The environment variable RSH_COMMAND is not set!
  ===> : All Displacements for the Numerical Hessian or Gradient calculation
         will be started on localhost

INFO   : the flag for use of the SHARK integral package has been found!

================================================================================
                                       INPUT FILE
================================================================================
NAME = ex.inp
|  1> ! PBE D3 def2-TZVP opt numfreq PModel NOAUTOSTART cpcm(water)
|  2> %pal nprocs=16 end
|  3> %geom maxiter=150 end
|  4> %base "neutral"
|  5> *xyz 0 2
|  6>   C   -0.09449280152340     -1.03005466313460     -0.46780933162394
|  7>   C   -1.01230795117861      1.57007956214631     -0.03445958595430
|  8>   C   -1.41368639822857     -0.81944050926770     -0.07444339750554
|  9>   C   0.78652378031256      0.04801297479330     -0.65346657397357
| 10>   C   0.31222299994057      1.34685257103324     -0.43123949588547
| 11>   C   -1.87714074336859      0.49396989307550      0.14614404347955
| 12>   O   -3.19222282966068      0.60220901019905      0.52903188074299
| 13>   O   -2.25276453527664     -1.88922018653150      0.09178338270851
| 14>   C   2.22592882833317     -0.20587474048156     -1.02648982868116
| 15>   C   3.08683778844368     -0.62383148358162      0.17584797432184
| 16>   N   3.16399143884405      0.40986813645389      1.23613731432329
| 17>   H   0.24218752234323     -2.05644317606776     -0.63335992228484
| 18>   H   -1.38003736243033      2.58543569445072      0.13419640210340
| 19>   H   0.98017366743041      2.19824937911036     -0.57625894337431
| 20>   H   -3.41930874992092      1.54182057158321      0.65737626065037
| 21>   H   -3.12906246892363     -1.54420542272517      0.35607142592006
| 22>   H   2.65970250462557      0.70012961872239     -1.47875694205807
| 23>   H   2.28835381486436     -1.00903716433528     -1.77815302613321
| 24>   H   2.68012220289160     -1.53855543534559      0.63015095781290
| 25>   H   4.11146883090365     -0.84406263230820     -0.15361314242780
| 26>   H   2.21336436737690      0.66371401893319      1.53195731529581
| 27>   H   3.57044941372289      1.26839026655071      0.84672793277750
| 28>   Cu  4.21710162347872     -0.07958981027287      2.88988804676597
| 29> *
| 30> 
| 31> 
| 32> $new_job
| 33> 
| 34> ! PBE D3 def2-TZVP opt numfreq PModel NOAUTOSTART cpcm(water)
| 35> %pal nprocs=16 end
| 36> %geom maxiter=150 end
| 37> %base "protonated"
| 38> *xyz 1 2
| 39>   C   -0.89146143443453     -1.75147415391772     -0.06119025849551
| 40>   C   -0.15660168143529      0.91238207647945      0.41900401502564
| 41>   C   -1.84446308599058     -0.73316751630245     -0.20020877282285
| 42>   C   0.43663498030243     -1.43039945528332      0.33440677285600
| 43>   C   0.80590059075005     -0.09348906283585      0.58854610987750
| 44>   C   -1.46105521490457      0.60696161541457      0.02924696100217
| 45>   O   -3.12210378450262     -1.04779161483567     -0.54355300533489
| 46>   O   -2.45227882020233      1.53175715184224     -0.13253544824092
| 47>   C   2.21731665023610      0.25982748392604      0.98701676846419
| 48>   C   3.05979129458447      0.82446061108454     -0.15710539042611
| 49>   N   3.32128456945956     -0.20721577218295     -1.21231712844560
| 50>   H   2.41846472186336     -0.59014471398271     -1.62212574208336
| 51>   H   3.86464609541644      0.18310453733231     -1.99360393879537
| 52>   H   3.84699462638914     -1.00829310166041     -0.83601285545379
| 53>   H   -1.21054999126764     -2.79132033876070     -0.15267738973157
| 54>   H   0.10518929318033      1.95861187814166      0.60181473939512
| 55>   H   1.13833621567969     -2.23765523734273      0.55410484854306
| 56>   H   -3.63653388699073     -0.21737484069739     -0.60736509353236
| 57>   H   -2.11058657832725      2.42543453579231      0.05985600916873
| 58>   H   2.72356995856050     -0.62150805936455      1.41008992305617
| 59>   H   2.20383739938586      1.03123148357444      1.77141113585703
| 60>   H   2.55397866397261      1.66180236620260     -0.65402605290351
| 61>   H   4.03761853497922      1.16234625768323      0.20649156769030
| 62>   Cu  0.39673274129570     -1.49774729830697     -1.87443509267007
| 63> *
| 64> 
| 65> 
| 66> $new_job
| 67> 
| 68> ! PBE D3 def2-TZVP opt numfreq PModel NOAUTOSTART cpcm(water)
| 69> %pal nprocs=16 end
| 70> %geom maxiter=150 end
| 71> %base "deprotonated"
| 72> *xyz -1 2
| 73>   O   2.37178496482699     -1.82494242773317     -0.04059242540945
| 74>   O   3.23825827769790      0.52824543968038     -0.55754968328594
| 75>   N   -3.05666513882044      0.34840630072499     -1.28730227596273
| 76>   C   -2.18407512238629     -0.14621097240053      1.02105886948088
| 77>   C   -0.73956063645046      0.07526654854472      0.64578567626596
| 78>   C   -3.04106979592171     -0.62069818180745     -0.16296579233937
| 79>   C   0.13972936988672     -1.02723545553916      0.50992741562831
| 80>   C   -0.24644725841345      1.35318300456249      0.35816205709979
| 81>   C   1.44795617334272     -0.82176907411514      0.10783939307707
| 82>   C   1.08403267643880      1.56503121004996     -0.05065101583071
| 83>   C   1.98345532244849      0.48422360971015     -0.19358221761841
| 84>   H   -2.61583139468792      0.78781018930872      1.41762601408394
| 85>   H   -2.26898682743316     -0.90425234109012      1.81825523752982
| 86>   H   -4.08098225300452     -0.78971797269425      0.15043220900906
| 87>   H   -2.65043330388322     -1.57316280500005     -0.54955548708262
| 88>   H   -0.21137197566986     -2.04140806202143      0.72544495910918
| 89>   H   -0.91548841149425      2.21277593200635      0.46448771192595
| 90>   H   1.43933924431165      2.57834476159626     -0.26038598867151
| 91>   H   -2.08385184093947      0.59826439703421     -1.51118444926488
| 92>   H   -3.49554712365938      1.22212562513323     -0.97387642549043
| 93>   H   3.15898530535290     -1.26074312535076     -0.33047071485185
| 94>   Cu  -3.97730747154202     -0.23947949759939     -2.98070222440204
| 95> *
| 96> 
| 97> $new_job
| 98> 
| 99> ! PBE D3 def2-TZVP opt numfreq PModel NOAUTOSTART cpcm(water)
|100> %pal nprocs=16 end
|101> %geom maxiter=150 end
|102> %base "2x_deprotonated"
|103> *xyz -2 2
|104>   O   -2.26646450248551     -2.02195613059449      0.28132970378406
|105>   O   -3.31039352139306      0.44706312876617     -0.63659608559602
|106>   N   2.93718624468636      0.15050425352663     -1.27997263462202
|107>   C   2.13050177444221      0.06048418588955      1.09115568875686
|108>   C   0.68257426598194      0.18301291462545      0.67846656554859
|109>   C   2.99733061269840     -0.59530716619860      0.00480569584934
|110>   C   -0.16941168552077     -0.94881198536142      0.68913270940912
|111>   C   0.16282124702658      1.38798184661270      0.19958716293197
|112>   C   -1.52392456141623     -0.95003460792325      0.25335341582562
|113>   C   -1.17956419102378      1.45400992396635     -0.23820755762956
|114>   C   -2.07216708423705      0.34809269199025     -0.23685369722405
|115>   H   2.54392294056451      1.06010902654118      1.31169907487663
|116>   H   2.23511760248015     -0.54168534307558      2.01135925752244
|117>   H   2.64237201194308     -1.61817909818435     -0.18770133879968
|118>   H   4.05149499191870     -0.65758595883818      0.31171782982558
|119>   H   0.22839846124795     -1.90605235187091      1.05541327066862
|120>   H   0.79390155101276      2.28340362051808      0.17673571431226
|121>   H   -1.58019481301016      2.40996709690110     -0.60017344149798
|122>   H   3.37639488856093      1.06981318720189     -1.15065544494710
|123>   H   1.94337021405037      0.35779612204343     -1.46376621128886
|124>   Cu  3.77635439347262     -0.72528621253600     -2.88306711470582
|125> *
|126> 
|127> 
|128> $new_job
|129> 
|130> ! PBE D3 def2-TZVP opt numfreq PModel NOAUTOSTART cpcm(water)
|131> %pal nprocs=16 end
|132> %geom maxiter=150 end
|133> %base "zwitterione"
|134> *xyz 0 2
|135>   O   2.89833523598153     -2.01573408482772     -0.29782744261172
|136>   C   2.09879576339402     -0.90257946743785     -0.14713525577849
|137>   C   0.72636572954856     -0.91475775614971     -0.50320840803429
|138>   C   -0.05340396783122      0.26970073470039     -0.52720781944714
|139>   C   -1.51345975735983      0.22808514511151     -0.90210832681841
|140>   C   -2.47260971517698      0.30263277733378      0.28739300144376
|141>   N   -2.32852034939881     -0.89023479206947      1.18263636519714
|142>   H   -2.96863998023343     -0.84153952461100      1.98622646081317
|143>   H   -2.52188369935009     -1.76729914125551      0.67950758201725
|144>   H   -1.33744443859765     -0.95564683047181      1.56876399962966
|145>   C   0.57537380664205      1.45920840404636     -0.12816120849804
|146>   C   1.91379544628030      1.48093623754897      0.27082007117818
|147>   C   2.78326657756401      0.33288154755583      0.22992535316395
|148>   O   4.03709999502104      0.37280305937863      0.46890524897551
|149>   H   2.33700310798660     -2.76489283867956     -0.57425328091856
|150>   H   0.28777049277328     -1.85334254669472     -0.85879546384313
|151>   H   -1.76333159604493      1.08360336803845     -1.54887466815197
|152>   H   -1.73294952201465     -0.68267129378332     -1.48228455737997
|153>   H   -2.26938161251711      1.18467036091370      0.90777304096188
|154>   H   -3.51793820619670      0.32989316626777     -0.04468526762456
|155>   H   -0.00061613109771      2.38903627014453     -0.11772689853333
|156>   H   2.37648612220441      2.42826989031784      0.56072264179227
|157>   Cu  0.89148812642329     -0.85997812737709      1.72000569646683
|158> *
|159> 
|160>                          ****END OF INPUT****
================================================================================


                 $$$$$$$$$$$$$$$$$$$$$$$$$$$$$$$$$$$$$$$$$$$$$$ 
                 $ THERE ARE  5 JOBS TO BE PROCESSED THIS RUN $
                 $$$$$$$$$$$$$$$$$$$$$$$$$$$$$$$$$$$$$$$$$$$$$$ 




                 $$$$$$$$$$$$$$$$  JOB NUMBER  1 $$$$$$$$$$$$$$


                       *****************************
                       * Geometry Optimization Run *
                       *****************************

Geometry optimization settings:
Update method            Update   .... BFGS
Choice of coordinates    CoordSys .... Z-matrix Internals
Initial Hessian          InHess   .... Almoef's Model

Convergence Tolerances:
Energy Change            TolE     ....  5.0000e-06 Eh
Max. Gradient            TolMAXG  ....  3.0000e-04 Eh/bohr
RMS Gradient             TolRMSG  ....  1.0000e-04 Eh/bohr
Max. Displacement        TolMAXD  ....  4.0000e-03 bohr
RMS Displacement         TolRMSD  ....  2.0000e-03 bohr
Strict Convergence                ....  False
------------------------------------------------------------------------------
                        ORCA OPTIMIZATION COORDINATE SETUP
------------------------------------------------------------------------------

The optimization will be done in new redundant internal coordinates
Making redundant internal coordinates   ...  (new redundants) done
Evaluating the initial hessian          ...  (Almloef) done
Evaluating the coordinates              ...  done
Calculating the B-matrix                .... done
Calculating the G-matrix                .... done
Diagonalizing the G-matrix              .... done
Small eigenvalue found = 1.166e-02
Small eigenvalue found = 2.601e-02
The first mode is                       ....   50
The number of degrees of freedom        ....   63

    -----------------------------------------------------------------
                    Redundant Internal Coordinates


    -----------------------------------------------------------------
         Definition                    Initial Value    Approx d2E/dq
    -----------------------------------------------------------------
      1. B(C   2,C   0)                  1.3926         0.618831   
      2. B(C   3,C   0)                  1.4046         0.592178   
      3. B(C   4,C   3)                  1.4005         0.601210   
      4. B(C   4,C   1)                  1.4006         0.600961   
      5. B(C   5,C   2)                  1.4101         0.580238   
      6. B(C   5,C   1)                  1.3923         0.619485   
      7. B(O   6,C   5)                  1.3740         0.593567   
      8. B(O   7,C   2)                  1.3697         0.602897   
      9. B(C   8,C   3)                  1.5085         0.404317   
     10. B(C   9,C   8)                  1.5367         0.364483   
     11. B(N  10,C   9)                  1.4828         0.397939   
     12. B(H  11,C   0)                  1.0928         0.356402   
     13. B(H  12,C   1)                  1.0930         0.356172   
     14. B(H  13,C   4)                  1.0918         0.357704   
     15. B(H  14,O   6)                  0.9751         0.491815   
     16. B(H  15,O   7)                  0.9782         0.486414   
     17. B(H  16,C   8)                  1.1016         0.345062   
     18. B(H  17,C   8)                  1.1018         0.344823   
     19. B(H  18,C   9)                  1.0993         0.347965   
     20. B(H  19,C   9)                  1.0986         0.348905   
     21. B(H  20,N  10)                  1.0274         0.405850   
     22. B(H  21,N  10)                  1.0266         0.407109   
     23. B(Cu 22,N  10)                  2.0208         0.558021   
     24. A(C   2,C   0,C   3)          121.0261         0.430353   
     25. A(C   3,C   0,H  11)          120.5048         0.349571   
     26. A(C   2,C   0,H  11)          118.4688         0.352181   
     27. A(C   4,C   1,H  12)          120.6605         0.350403   
     28. A(C   5,C   1,H  12)          119.2747         0.352205   
     29. A(C   4,C   1,C   5)          120.0647         0.431574   
     30. A(C   0,C   2,C   5)          119.7608         0.428783   
     31. A(C   5,C   2,O   7)          120.4730         0.424003   
     32. A(C   0,C   2,O   7)          119.7660         0.428921   
     33. A(C   4,C   3,C   8)          121.2315         0.400066   
     34. A(C   0,C   3,C   8)          120.1340         0.399002   
     35. A(C   0,C   3,C   4)          118.5826         0.428128   
     36. A(C   1,C   4,C   3)          120.8671         0.429260   
     37. A(C   3,C   4,H  13)          119.6656         0.350681   
     38. A(C   1,C   4,H  13)          119.4656         0.350657   
     39. A(C   1,C   5,O   6)          124.7354         0.427805   
     40. A(C   1,C   5,C   2)          119.6985         0.428864   
     41. A(C   2,C   5,O   6)          115.5655         0.422823   
     42. A(C   5,O   6,H  14)          109.6018         0.363874   
     43. A(C   2,O   7,H  15)          107.8251         0.364157   
     44. A(C   3,C   8,C   9)          112.7603         0.366753   
     45. A(C   3,C   8,H  17)          110.2095         0.326230   
     46. A(C   9,C   8,H  16)          108.9237         0.320762   
     47. A(C   3,C   8,H  16)          109.8059         0.326267   
     48. A(C   9,C   8,H  17)          107.6841         0.320725   
     49. A(H  16,C   8,H  17)          107.2850         0.286948   
     50. A(C   8,C   9,H  19)          110.0228         0.321343   
     51. A(N  10,C   9,H  18)          107.6866         0.323914   
     52. A(C   8,C   9,H  18)          110.0218         0.321202   
     53. A(N  10,C   9,H  19)          107.7980         0.324058   
     54. A(C   8,C   9,N  10)          113.5166         0.363478   
     55. A(H  18,C   9,H  19)          107.5890         0.287853   
     56. A(H  21,N  10,Cu 22)          107.8575         0.389668   
     57. A(H  20,N  10,Cu 22)          107.8423         0.389457   
     58. A(C   9,N  10,Cu 22)          116.3242         0.436048   
     59. A(H  20,N  10,H  21)          105.6002         0.297277   
     60. A(C   9,N  10,H  21)          109.4118         0.329574   
     61. A(C   9,N  10,H  20)          109.2671         0.329406   
     62. D(O   7,C   2,C   0,C   3)    179.6361         0.026493   
     63. D(O   7,C   2,C   0,H  11)     -0.1542         0.026493   
     64. D(C   5,C   2,C   0,C   3)     -0.1811         0.026493   
     65. D(C   5,C   2,C   0,H  11)   -179.9714         0.026493   
     66. D(C   8,C   3,C   0,H  11)     -2.6456         0.024141   
     67. D(C   4,C   3,C   0,C   2)      0.1550         0.024141   
     68. D(C   8,C   3,C   0,C   2)    177.5683         0.024141   
     69. D(C   4,C   3,C   0,H  11)    179.9411         0.024141   
     70. D(C   1,C   4,C   3,C   8)   -177.4899         0.024923   
     71. D(H  13,C   4,C   1,H  12)     -0.2355         0.024901   
     72. D(C   1,C   4,C   3,C   0)     -0.1062         0.024923   
     73. D(C   3,C   4,C   1,C   5)      0.0853         0.024901   
     74. D(H  13,C   4,C   1,C   5)    179.6051         0.024901   
     75. D(H  13,C   4,C   3,C   0)   -179.6251         0.024923   
     76. D(C   3,C   4,C   1,H  12)   -179.7553         0.024901   
     77. D(H  13,C   4,C   3,C   8)      2.9913         0.024923   
     78. D(O   6,C   5,C   2,O   7)      0.0737         0.023132   
     79. D(C   1,C   5,C   2,O   7)   -179.6598         0.023132   
     80. D(O   6,C   5,C   1,H  12)      0.0267         0.026553   
     81. D(O   6,C   5,C   1,C   4)   -179.8161         0.026553   
     82. D(C   1,C   5,C   2,C   0)      0.1561         0.023132   
     83. D(O   6,C   5,C   2,C   0)    179.8896         0.023132   
     84. D(C   2,C   5,C   1,H  12)    179.7341         0.026553   
     85. D(C   2,C   5,C   1,C   4)     -0.1087         0.026553   
     86. D(H  14,O   6,C   5,C   2)    179.9775         0.025696   
     87. D(H  14,O   6,C   5,C   1)     -0.3042         0.025696   
     88. D(H  15,O   7,C   2,C   5)      0.4839         0.026564   
     89. D(H  15,O   7,C   2,C   0)   -179.3319         0.026564   
     90. D(H  16,C   8,C   3,C   0)    159.5451         0.012121   
     91. D(C   9,C   8,C   3,C   4)     98.5502         0.012121   
     92. D(C   9,C   8,C   3,C   0)    -78.7933         0.012121   
     93. D(H  17,C   8,C   3,C   4)   -141.0871         0.012121   
     94. D(H  17,C   8,C   3,C   0)     41.5694         0.012121   
     95. D(H  16,C   8,C   3,C   4)    -23.1114         0.012121   
     96. D(H  19,C   9,C   8,H  16)    -60.5821         0.010640   
     97. D(H  19,C   9,C   8,C   3)    177.2583         0.010640   
     98. D(H  18,C   9,C   8,H  17)    -62.9093         0.010640   
     99. D(H  18,C   9,C   8,H  16)   -178.9488         0.010640   
    100. D(H  18,C   9,C   8,C   3)     58.8917         0.010640   
    101. D(N  10,C   9,C   8,H  17)    176.3461         0.010640   
    102. D(N  10,C   9,C   8,H  16)     60.3066         0.010640   
    103. D(H  19,C   9,C   8,H  17)     55.4573         0.010640   
    104. D(N  10,C   9,C   8,C   3)    -61.8529         0.010640   
    105. D(Cu 22,N  10,C   9,H  19)    -60.1525         0.014474   
    106. D(Cu 22,N  10,C   9,H  18)     55.6641         0.014474   
    107. D(Cu 22,N  10,C   9,C   8)    177.7153         0.014474   
    108. D(H  21,N  10,C   9,H  19)     62.3337         0.014474   
    109. D(H  21,N  10,C   9,H  18)    178.1502         0.014474   
    110. D(H  21,N  10,C   9,C   8)    -59.7985         0.014474   
    111. D(H  20,N  10,C   9,H  19)    177.4986         0.014474   
    112. D(H  20,N  10,C   9,H  18)    -66.6848         0.014474   
    113. D(H  20,N  10,C   9,C   8)     55.3665         0.014474   
    -----------------------------------------------------------------

Number of atoms                         .... 23
Number of degrees of freedom            .... 113

         *************************************************************
         *                GEOMETRY OPTIMIZATION CYCLE   1            *
         *************************************************************
---------------------------------
CARTESIAN COORDINATES (ANGSTROEM)
---------------------------------
  C     -0.094493   -1.030055   -0.467809
  C     -1.012308    1.570080   -0.034460
  C     -1.413686   -0.819441   -0.074443
  C      0.786524    0.048013   -0.653467
  C      0.312223    1.346853   -0.431239
  C     -1.877141    0.493970    0.146144
  O     -3.192223    0.602209    0.529032
  O     -2.252765   -1.889220    0.091783
  C      2.225929   -0.205875   -1.026490
  C      3.086838   -0.623831    0.175848
  N      3.163991    0.409868    1.236137
  H      0.242188   -2.056443   -0.633360
  H     -1.380037    2.585436    0.134196
  H      0.980174    2.198249   -0.576259
  H     -3.419309    1.541821    0.657376
  H     -3.129062   -1.544205    0.356071
  H      2.659703    0.700130   -1.478757
  H      2.288354   -1.009037   -1.778153
  H      2.680122   -1.538555    0.630151
  H      4.111469   -0.844063   -0.153613
  H      2.213364    0.663714    1.531957
  H      3.570449    1.268390    0.846728
  Cu     4.217102   -0.079590    2.889888

----------------------------
CARTESIAN COORDINATES (A.U.)
----------------------------
  NO LB      ZA    FRAG     MASS         X           Y           Z
   0 C     6.0000    0    12.011   -0.178566   -1.946521   -0.884032
   1 C     6.0000    0    12.011   -1.912985    2.967020   -0.065119
   2 C     6.0000    0    12.011   -2.671480   -1.548518   -0.140678
   3 C     6.0000    0    12.011    1.486315    0.090731   -1.234873
   4 C     6.0000    0    12.011    0.590016    2.545183   -0.814925
   5 C     6.0000    0    12.011   -3.547282    0.933468    0.276172
   6 O     8.0000    0    15.999   -6.032427    1.138010    0.999725
   7 O     8.0000    0    15.999   -4.257108   -3.570109    0.173445
   8 C     6.0000    0    12.011    4.206396   -0.389047   -1.939785
   9 C     6.0000    0    12.011    5.833278   -1.178871    0.332305
  10 N     7.0000    0    14.007    5.979077    0.774539    2.335961
  11 H     1.0000    0     1.008    0.457668   -3.886114   -1.196877
  12 H     1.0000    0     1.008   -2.607893    4.885765    0.253594
  13 H     1.0000    0     1.008    1.852260    4.154089   -1.088972
  14 H     1.0000    0     1.008   -6.461557    2.913619    1.242261
  15 H     1.0000    0     1.008   -5.913071   -2.918125    0.672877
  16 H     1.0000    0     1.008    5.026109    1.323053   -2.794446
  17 H     1.0000    0     1.008    4.324362   -1.906804   -3.360222
  18 H     1.0000    0     1.008    5.064697   -2.907448    1.190813
  19 H     1.0000    0     1.008    7.769550   -1.595047   -0.290287
  20 H     1.0000    0     1.008    4.182652    1.254238    2.894980
  21 H     1.0000    0     1.008    6.747172    2.396910    1.600084
  22 Cu   29.0000    0    63.550    7.969167   -0.150403    5.461097

--------------------------------
INTERNAL COORDINATES (ANGSTROEM)
--------------------------------
 C      0   0   0     0.000000000000     0.00000000     0.00000000
 C      1   0   0     2.791213829230     0.00000000     0.00000000
 C      1   2   0     1.392611512778    60.24941514     0.00000000
 C      1   2   3     1.404595550703    60.77674392   179.89872574
 C      4   1   2     1.400475062705   118.58264313     0.05242060
 C      2   1   3     1.392323758786    60.29116364     0.07887372
 O      6   2   1     1.373957676235   124.73540386   180.21472151
 O      3   1   2     1.369712386021   119.76598636   179.73928205
 C      4   1   2     1.508473471025   120.13399892   177.46566907
 C      9   4   1     1.536706956199   112.76027177   281.20673013
 N     10   9   4     1.482801765157   113.51656741   298.14710233
 H      1   2   3     1.092810147294   178.71484157     4.17882657
 H      2   1   3     1.092985744470   179.53599467   339.37791844
 H      5   4   1     1.091817411088   119.66564931   180.37494224
 H      7   6   2     0.975146235865   109.60179769   359.69582229
 H      8   3   1     0.978152046229   107.82505613   180.66806009
 H      9   4   1     1.101612020170   109.80587091   159.54509226
 H      9   4   1     1.101800490306   110.20945703    41.56941470
 H     10   9   4     1.099331013058   110.02180160    58.89171219
 H     10   9   4     1.098596904916   110.02282095   177.25834015
 H     11  10   9     1.027442959017   109.26709187    55.36650543
 H     11  10   9     1.026600214126   109.41183646   300.20150956
 Cu    11  10   9     2.020767583778   116.32422337   177.71532662

---------------------------
INTERNAL COORDINATES (A.U.)
---------------------------
 C      0   0   0     0.000000000000     0.00000000     0.00000000
 C      1   0   0     5.274629718459     0.00000000     0.00000000
 C      1   2   0     2.631654370096    60.24941514     0.00000000
 C      1   2   3     2.654300919753    60.77674392   179.89872574
 C      4   1   2     2.646514325898   118.58264313     0.05242060
 C      2   1   3     2.631110593857    60.29116364     0.07887372
 O      6   2   1     2.596403727684   124.73540386   180.21472151
 O      3   1   2     2.588381291819   119.76598636   179.73928205
 C      4   1   2     2.850601740524   120.13399892   177.46566907
 C      9   4   1     2.903955295308   112.76027177   281.20673013
 N     10   9   4     2.802089247042   113.51656741   298.14710233
 H      1   2   3     2.065111894755   178.71484157     4.17882657
 H      2   1   3     2.065443725329   179.53599467   339.37791844
 H      5   4   1     2.063235895202   119.66564931   180.37494224
 H      7   6   2     1.842759326308   109.60179769   359.69582229
 H      8   3   1     1.848439484708   107.82505613   180.66806009
 H      9   4   1     2.081745023957   109.80587091   159.54509226
 H      9   4   1     2.082101180898   110.20945703    41.56941470
 H     10   9   4     2.077434545205   110.02180160    58.89171219
 H     10   9   4     2.076047281866   110.02282095   177.25834015
 H     11  10   9     1.941585810768   109.26709187    55.36650543
 H     11  10   9     1.939993253724   109.41183646   300.20150956
 Cu    11  10   9     3.818697313647   116.32422337   177.71532662

---------------------
BASIS SET INFORMATION
---------------------
There are 5 groups of distinct atoms

 Group   1 Type C   : 11s6p2d1f contracted to 5s3p2d1f pattern {62111/411/11/1}
 Group   2 Type O   : 11s6p2d1f contracted to 5s3p2d1f pattern {62111/411/11/1}
 Group   3 Type N   : 11s6p2d1f contracted to 5s3p2d1f pattern {62111/411/11/1}
 Group   4 Type H   : 5s1p contracted to 3s1p pattern {311/1}
 Group   5 Type Cu  : 17s11p7d1f contracted to 6s4p4d1f pattern {842111/6311/4111/1}

Atom   0C    basis set group =>   1
Atom   1C    basis set group =>   1
Atom   2C    basis set group =>   1
Atom   3C    basis set group =>   1
Atom   4C    basis set group =>   1
Atom   5C    basis set group =>   1
Atom   6O    basis set group =>   2
Atom   7O    basis set group =>   2
Atom   8C    basis set group =>   1
Atom   9C    basis set group =>   1
Atom  10N    basis set group =>   3
Atom  11H    basis set group =>   4
Atom  12H    basis set group =>   4
Atom  13H    basis set group =>   4
Atom  14H    basis set group =>   4
Atom  15H    basis set group =>   4
Atom  16H    basis set group =>   4
Atom  17H    basis set group =>   4
Atom  18H    basis set group =>   4
Atom  19H    basis set group =>   4
Atom  20H    basis set group =>   4
Atom  21H    basis set group =>   4
Atom  22Cu   basis set group =>   5
---------------------------------
AUXILIARY/J BASIS SET INFORMATION
---------------------------------
There are 5 groups of distinct atoms

 Group   1 Type C   : 12s5p4d2f1g contracted to 6s4p3d1f1g pattern {711111/2111/211/2/1}
 Group   2 Type O   : 12s5p4d2f1g contracted to 6s4p3d1f1g pattern {711111/2111/211/2/1}
 Group   3 Type N   : 12s5p4d2f1g contracted to 6s4p3d1f1g pattern {711111/2111/211/2/1}
 Group   4 Type H   : 5s2p1d contracted to 3s1p1d pattern {311/2/1}
 Group   5 Type Cu  : 19s5p5d3f3g contracted to 8s5p4d3f3g pattern {121111111/11111/2111/111/111}

Atom   0C    basis set group =>   1
Atom   1C    basis set group =>   1
Atom   2C    basis set group =>   1
Atom   3C    basis set group =>   1
Atom   4C    basis set group =>   1
Atom   5C    basis set group =>   1
Atom   6O    basis set group =>   2
Atom   7O    basis set group =>   2
Atom   8C    basis set group =>   1
Atom   9C    basis set group =>   1
Atom  10N    basis set group =>   3
Atom  11H    basis set group =>   4
Atom  12H    basis set group =>   4
Atom  13H    basis set group =>   4
Atom  14H    basis set group =>   4
Atom  15H    basis set group =>   4
Atom  16H    basis set group =>   4
Atom  17H    basis set group =>   4
Atom  18H    basis set group =>   4
Atom  19H    basis set group =>   4
Atom  20H    basis set group =>   4
Atom  21H    basis set group =>   4
Atom  22Cu   basis set group =>   5


           ************************************************************
           *        Program running with 16 parallel MPI-processes    *
           *              working on a common directory               *
           ************************************************************
------------------------------------------------------------------------------
                           ORCA GTO INTEGRAL CALCULATION
                           -- RI-GTO INTEGRALS CHOSEN --
------------------------------------------------------------------------------
------------------------------------------------------------------------------
                   ___                                                        
                  /   \      - P O W E R E D   B Y -                         
                 /     \                                                     
                 |  |  |   _    _      __       _____    __    __             
                 |  |  |  | |  | |    /  \     |  _  \  |  |  /  |          
                  \  \/   | |  | |   /    \    | | | |  |  | /  /          
                 / \  \   | |__| |  /  /\  \   | |_| |  |  |/  /          
                |  |  |   |  __  | /  /__\  \  |    /   |      \           
                |  |  |   | |  | | |   __   |  |    \   |  |\   \          
                \     /   | |  | | |  |  |  |  | |\  \  |  | \   \       
                 \___/    |_|  |_| |__|  |__|  |_| \__\ |__|  \__/        
                                                                              
                      - O R C A' S   B I G   F R I E N D -                    
                                      &                                       
                       - I N T E G R A L  F E E D E R -                       
                                                                              
 v1 FN, 2020, v2 2021                                                         
------------------------------------------------------------------------------


Reading SHARK input file neutral.SHARKINP.tmp ... ok
----------------------
SHARK INTEGRAL PACKAGE
----------------------

Number of atoms                             ...     23
Number of basis functions                   ...    452
Number of shells                            ...    180
Maximum angular momentum                    ...      3
Integral batch strategy                     ... SHARK/LIBINT Hybrid
RI-J (if used) integral strategy            ... SPLIT-RIJ (Revised 2003 algorithm where possible)
Printlevel                                  ...      1
Contraction scheme used                     ... SEGMENTED contraction
Coulomb Range Separation                    ... NOT USED
Exchange Range Separation                   ... NOT USED
Finite Nucleus Model                        ... NOT USED
Auxiliary Coulomb fitting basis             ... AVAILABLE
   # of basis functions in Aux-J            ...    751
   # of shells in Aux-J                     ...    243
   Maximum angular momentum in Aux-J        ...      4
Auxiliary J/K fitting basis                 ... NOT available
Auxiliary Correlation fitting basis         ... NOT available
Auxiliary 'external' fitting basis          ... NOT available
Integral threshold                          ...     2.500000e-11
Primitive cut-off                           ...     2.500000e-12
Primitive pair pre-selection threshold      ...     2.500000e-12

Calculating pre-screening integrals         ... done (  0.1 sec) Dimension = 180
Organizing shell pair data                  ... done (  0.3 sec)
Shell pair information
Total number of shell pairs                 ...     16290
Shell pairs after pre-screening             ...     13277
Total number of primitive shell pairs       ...     52337
Primitive shell pairs kept                  ...     29532
          la=0 lb=0:   3562 shell pairs
          la=1 lb=0:   3743 shell pairs
          la=1 lb=1:   1012 shell pairs
          la=2 lb=0:   1976 shell pairs
          la=2 lb=1:   1047 shell pairs
          la=2 lb=2:    285 shell pairs
          la=3 lb=0:    876 shell pairs
          la=3 lb=1:    468 shell pairs
          la=3 lb=2:    247 shell pairs
          la=3 lb=3:     61 shell pairs

Calculating one electron integrals          ... done (  0.0 sec)
Calculating RI/J V-Matrix + Cholesky decomp.... done (  0.0 sec)
Calculating Nuclear repulsion               ... done (  0.0 sec) ENN=    874.700956340822 Eh

SHARK setup successfully completed in   0.7 seconds

Maximum memory used throughout the entire GTOINT-calculation: 29.7 MB


           ************************************************************
           *        Program running with 16 parallel MPI-processes    *
           *              working on a common directory               *
           ************************************************************
-------------------------------------------------------------------------------
                                 ORCA SCF
-------------------------------------------------------------------------------

------------
SCF SETTINGS
------------
Hamiltonian:
 Density Functional     Method          .... DFT(GTOs)
 Exchange Functional    Exchange        .... PBE
   PBE kappa parameter   XKappa         ....  0.804000
   PBE mue parameter    XMuePBE         ....  0.219520
 Correlation Functional Correlation     .... PBE
   PBE beta parameter  CBetaPBE         ....  0.066725
 LDA part of GGA corr.  LDAOpt          .... PW91-LDA
 Gradients option       PostSCFGGA      .... off
   Density functional embedding theory  .... OFF
   NL short-range parameter             ....  6.400000
 RI-approximation to the Coulomb term is turned on
   Number of AuxJ basis functions       .... 751


General Settings:
 Integral files         IntName         .... neutral
 Hartree-Fock type      HFTyp           .... UHF
 Total Charge           Charge          ....    0
 Multiplicity           Mult            ....    2
 Number of Electrons    NEL             ....  111
 Basis Dimension        Dim             ....  452
 Nuclear Repulsion      ENuc            ....    874.7009563408 Eh

Convergence Acceleration:
 DIIS                   CNVDIIS         .... on
   Start iteration      DIISMaxIt       ....    12
   Startup error        DIISStart       ....  0.200000
   # of expansion vecs  DIISMaxEq       ....     5
   Bias factor          DIISBfac        ....   1.050
   Max. coefficient     DIISMaxC        ....  10.000
 Trust-Rad. Augm. Hess. CNVTRAH         .... auto
   Auto Start mean grad. ratio tolernc. ....  1.125000
   Auto Start start iteration           ....    20
   Auto Start num. interpolation iter.  ....    10
   Max. Number of Micro iterations      ....    16
   Max. Number of Macro iterations      .... Maxiter - #DIIS iter
   Number of Davidson start vectors     ....     2
   Converg. threshold I  (grad. norm)   ....   1.000e-05
   Converg. threshold II (energy diff.) ....   1.000e-08
   Grad. Scal. Fac. for Micro threshold ....   0.100
   Minimum threshold for Micro iter.    ....   0.010
   NR start threshold (gradient norm)   ....   0.001
   Initial trust radius                 ....   0.400
   Minimum AH scaling param. (alpha)    ....   1.000
   Maximum AH scaling param. (alpha)    .... 1000.000
   Orbital update algorithm             .... Taylor
   White noise on init. David. guess    .... on
   Maximum white noise                  ....   0.010
   Quad. conv. algorithm                .... NR
 SOSCF                  CNVSOSCF        .... off
 Level Shifting         CNVShift        .... on
   Level shift para.    LevelShift      ....    0.2500
   Turn off err/grad.   ShiftErr        ....    0.0010
 Zerner damping         CNVZerner       .... off
 Static damping         CNVDamp         .... on
   Fraction old density DampFac         ....    0.7000
   Max. Damping (<1)    DampMax         ....    0.9800
   Min. Damping (>=0)   DampMin         ....    0.0000
   Turn off err/grad.   DampErr         ....    0.1000
 Fernandez-Rico         CNVRico         .... off

SCF Procedure:
 Maximum # iterations   MaxIter         ....   125
 SCF integral mode      SCFMode         .... Direct
   Integral package                     .... SHARK and LIBINT hybrid scheme
 Reset frequency        DirectResetFreq ....    20
 Integral Threshold     Thresh          ....  2.500e-11 Eh
 Primitive CutOff       TCut            ....  2.500e-12 Eh

Convergence Tolerance:
 Convergence Check Mode ConvCheckMode   .... Total+1el-Energy
 Convergence forced     ConvForced      .... 0
 Energy Change          TolE            ....  1.000e-08 Eh
 1-El. energy change                    ....  1.000e-05 Eh
 DIIS Error             TolErr          ....  5.000e-07


Diagonalization of the overlap matrix:
Smallest eigenvalue                        ... 9.094e-06
Time for diagonalization                   ...    0.045 sec
Threshold for overlap eigenvalues          ... 1.000e-08
Number of eigenvalues below threshold      ... 0
Time for construction of square roots      ...    0.035 sec
Total time needed                          ...    0.082 sec

Time for model grid setup =    0.205 sec

------------------------------
INITIAL GUESS: MODEL POTENTIAL
------------------------------
Loading Hartree-Fock densities                     ... done
Calculating cut-offs                               ... done
Initializing the effective Hamiltonian             ... done
Setting up the integral package (SHARK)            ... done
Starting the Coulomb interaction                   ... done (   0.2 sec)
Reading the grid                                   ... done
Mapping shells                                     ... done
Starting the XC term evaluation                    ... done (   0.1 sec)
  promolecular density results
     # of electrons  =    110.991254421
     EX              =   -132.510863580
     EC              =     -4.092616752
     EX+EC           =   -136.603480331
Transforming the Hamiltonian                       ... done (   0.0 sec)
Diagonalizing the Hamiltonian                      ... done (   0.0 sec)
Back transforming the eigenvectors                 ... done (   0.0 sec)
Now organizing SCF variables                       ... done
                      ------------------
                      INITIAL GUESS DONE (   0.6 sec)
                      ------------------
-------------------
DFT GRID GENERATION
-------------------

General Integration Accuracy     IntAcc      ... 4.388
Radial Grid Type                 RadialGrid  ... OptM3 with GC (2021)
Angular Grid (max. ang.)         AngularGrid ... 4 (Lebedev-302)
Angular grid pruning method      GridPruning ... 4 (adaptive)
Weight generation scheme         WeightScheme... Becke
Basis function cutoff            BFCut       ... 1.0000e-11
Integration weight cutoff        WCut        ... 1.0000e-14
Angular grids for H and He will be reduced by one unit
Partially contracted basis set               ... off
Rotationally invariant grid construction     ... off

Total number of grid points                  ...   112333
Total number of batches                      ...     1766
Average number of points per batch           ...       63
Average number of grid points per atom       ...     4884
Time for grid setup =    0.917 sec


--------------------
CPCM SOLVATION MODEL
--------------------
CPCM parameters:
  Epsilon                                         ...      80.4000
  Refrac                                          ...       1.3300
  Rsolv                                           ...       1.3000
  Surface type                                    ... GAUSSIAN VDW
  Epsilon function type                           ...         CPCM
Radii:
 Radius for C  used is    3.8550 Bohr (=   2.0400 Ang.)
 Radius for O  used is    3.4469 Bohr (=   1.8240 Ang.)
 Radius for N  used is    3.5149 Bohr (=   1.8600 Ang.)
 Radius for H  used is    2.4944 Bohr (=   1.3200 Ang.)
 Radius for Cu used is    3.1747 Bohr (=   1.6800 Ang.)
Calculating surface                               ...        done! (  0.0s)
GEPOL surface points                              ...         1320
GEPOL Volume                                      ...    1379.8957
GEPOL Surface-area                                ...     776.9679
Calculating surface distance matrix               ...        done! (  0.0s)
Performing Cholesky decomposition & store         ...        done! (  0.2s)
Overall time for CPCM initialization              ...                 0.2s
--------------
SCF ITERATIONS
--------------
ITER       Energy         Delta-E        Max-DP      RMS-DP      [F,P]     Damp
               ***  Starting incremental Fock matrix formation  ***
  0  -2156.1943864993   0.000000000000 0.11019311  0.00095064  0.2439050 0.7000
  1  -2156.3529985840  -0.158612084696 0.10277491  0.00085931  0.0798567 0.7000
                               ***Turning on DIIS***
  2  -2156.4102957914  -0.057297207460 0.15697989  0.00143294  0.0559331 0.0000
  3  -2156.5010286974  -0.090732905989 0.02338352  0.00017657  0.1217520 0.7000
  4  -2156.5138825991  -0.012853901712 0.08766627  0.00067486  0.0875836 0.0000
  5  -2156.5332200956  -0.019337496446 0.01143200  0.00010727  0.0131904 0.0000
  6  -2156.5338762277  -0.000656132102 0.00432356  0.00004344  0.0019333 0.0000
  7  -2156.5339134926  -0.000037264901 0.00170246  0.00001700  0.0013379 0.0000
  8  -2156.5339226328  -0.000009140177 0.00345904  0.00002739  0.0008899 0.0000
  9  -2156.5339281070  -0.000005474241 0.00024827  0.00000227  0.0012076 0.0000
 10  -2156.5339294371  -0.000001330076 0.00034328  0.00000314  0.0002044 0.0000
 11  -2156.5339298398  -0.000000402763 0.00025475  0.00000221  0.0000918 0.0000
 12  -2156.5339299249  -0.000000085031 0.00012249  0.00000116  0.0000381 0.0000
 13  -2156.5339299446  -0.000000019761 0.00013813  0.00000092  0.0000248 0.0000
 14  -2156.5339299468  -0.000000002209 0.00008679  0.00000074  0.0000238 0.0000
 15  -2156.5339299441   0.000000002718 0.00002211  0.00000025  0.0000745 0.0000
 16  -2156.5339299458  -0.000000001689 0.00008398  0.00000073  0.0000064 0.0000
 17  -2156.5339299349   0.000000010926 0.00008919  0.00000092  0.0000017 0.0000
                            ***DIIS convergence achieved***

               *****************************************************
               *                     SUCCESS                       *
               *           SCF CONVERGED AFTER  18 CYCLES          *
               *****************************************************


----------------
TOTAL SCF ENERGY
----------------

Total Energy       :        -2156.53392994 Eh          -58682.27158 eV

Components:
Nuclear Repulsion  :          874.70095634 Eh           23801.82308 eV
Electronic Energy  :        -3031.23488628 Eh          -82484.09467 eV
One Electron Energy:        -4727.45017553 Eh         -128640.45923 eV
Two Electron Energy:         1696.21528925 Eh           46156.36456 eV
CPCM Dielectric    :           -0.02411038 Eh              -0.65608 eV

Virial components:
Potential Energy   :        -4308.34335154 Eh         -117235.98276 eV
Kinetic Energy     :         2151.80942161 Eh           58553.71118 eV
Virial Ratio       :            2.00219560


DFT components:
N(Alpha)           :       56.000144156408 electrons
N(Beta)            :       55.000118358627 electrons
N(Total)           :      111.000262515035 electrons
E(X)               :     -133.834799324291 Eh       
E(C)               :       -4.096779463948 Eh       
E(XC)              :     -137.931578788239 Eh       
DFET-embed. en.    :        0.000000000000 Eh       
CPCM Solvation Model Properties:
Surface-charge          :           -0.10192411
Charge-correction       :            0.00164938 Eh               0.04488 eV
Free-energy (cav+disp)  :  This term is not implemented in the current solvation scheme

---------------
SCF CONVERGENCE
---------------

  Last Energy change         ...   -1.2019e-09  Tolerance :   1.0000e-08
  Last MAX-Density change    ...    3.2921e-05  Tolerance :   1.0000e-07
  Last RMS-Density change    ...    3.0162e-07  Tolerance :   5.0000e-09
  Last DIIS Error            ...    8.9658e-07  Tolerance :   5.0000e-07

             **** THE GBW FILE WAS UPDATED (neutral.gbw) ****
             **** DENSITY neutral.scfp WAS UPDATED ****
             **** ENERGY FILE WAS UPDATED (neutral.en.tmp) ****
----------------------
UHF SPIN CONTAMINATION
----------------------

Warning: in a DFT calculation there is little theoretical justification to 
         calculate <S**2> as in Hartree-Fock theory. We will do it anyways
         but you should keep in mind that the values have only limited relevance

Expectation value of <S**2>     :     0.752707
Ideal value S*(S+1) for S=0.5   :     0.750000
Deviation                       :     0.002707

             **** THE GBW FILE WAS UPDATED (neutral.gbw) ****
             **** DENSITY neutral.scfp WAS UPDATED ****
----------------
ORBITAL ENERGIES
----------------
                 SPIN UP ORBITALS
  NO   OCC          E(Eh)            E(eV) 
   0   1.0000    -321.462283     -8747.4334 
   1   1.0000     -38.231839     -1040.3412 
   2   1.0000     -33.523693      -912.2261 
   3   1.0000     -33.522026      -912.1807 
   4   1.0000     -33.522008      -912.1802 
   5   1.0000     -18.788445      -511.2596 
   6   1.0000     -18.782542      -511.0990 
   7   1.0000     -14.011062      -381.2604 
   8   1.0000      -9.944914      -270.6149 
   9   1.0000      -9.944117      -270.5932 
  10   1.0000      -9.913285      -269.7542 
  11   1.0000      -9.891915      -269.1727 
  12   1.0000      -9.887488      -269.0522 
  13   1.0000      -9.884750      -268.9777 
  14   1.0000      -9.882949      -268.9287 
  15   1.0000      -9.881796      -268.8973 
  16   1.0000      -4.062896      -110.5570 
  17   1.0000      -2.600499       -70.7632 
  18   1.0000      -2.596789       -70.6622 
  19   1.0000      -2.596666       -70.6589 
  20   1.0000      -0.987667       -26.8758 
  21   1.0000      -0.961975       -26.1767 
  22   1.0000      -0.833330       -22.6761 
  23   1.0000      -0.776928       -21.1413 
  24   1.0000      -0.703259       -19.1366 
  25   1.0000      -0.673859       -18.3366 
  26   1.0000      -0.644262       -17.5313 
  27   1.0000      -0.584079       -15.8936 
  28   1.0000      -0.554171       -15.0798 
  29   1.0000      -0.544805       -14.8249 
  30   1.0000      -0.497572       -13.5396 
  31   1.0000      -0.476168       -12.9572 
  32   1.0000      -0.464053       -12.6275 
  33   1.0000      -0.433032       -11.7834 
  34   1.0000      -0.415670       -11.3109 
  35   1.0000      -0.398780       -10.8514 
  36   1.0000      -0.396572       -10.7913 
  37   1.0000      -0.383868       -10.4456 
  38   1.0000      -0.382288       -10.4026 
  39   1.0000      -0.362497        -9.8640 
  40   1.0000      -0.355492        -9.6734 
  41   1.0000      -0.334251        -9.0954 
  42   1.0000      -0.326054        -8.8724 
  43   1.0000      -0.315548        -8.5865 
  44   1.0000      -0.301480        -8.2037 
  45   1.0000      -0.300246        -8.1701 
  46   1.0000      -0.293276        -7.9805 
  47   1.0000      -0.278882        -7.5888 
  48   1.0000      -0.215967        -5.8768 
  49   1.0000      -0.188930        -5.1411 
  50   1.0000      -0.172318        -4.6890 
  51   1.0000      -0.172000        -4.6804 
  52   1.0000      -0.171032        -4.6540 
  53   1.0000      -0.170855        -4.6492 
  54   1.0000      -0.167292        -4.5523 
  55   1.0000      -0.114591        -3.1182 
  56   0.0000      -0.039866        -1.0848 
  57   0.0000      -0.025191        -0.6855 
  58   0.0000       0.010054         0.2736 
  59   0.0000       0.018874         0.5136 
  60   0.0000       0.030776         0.8375 
  61   0.0000       0.038991         1.0610 
  62   0.0000       0.044126         1.2007 
  63   0.0000       0.049388         1.3439 
  64   0.0000       0.062178         1.6919 
  65   0.0000       0.069134         1.8812 
  66   0.0000       0.081378         2.2144 
  67   0.0000       0.085647         2.3306 
  68   0.0000       0.093656         2.5485 
  69   0.0000       0.102181         2.7805 
  70   0.0000       0.114354         3.1117 
  71   0.0000       0.116602         3.1729 
  72   0.0000       0.118235         3.2174 
  73   0.0000       0.123312         3.3555 
  74   0.0000       0.131120         3.5680 
  75   0.0000       0.142940         3.8896 
  76   0.0000       0.153958         4.1894 
  77   0.0000       0.157224         4.2783 
  78   0.0000       0.161269         4.3884 
  79   0.0000       0.168896         4.5959 
  80   0.0000       0.185646         5.0517 
  81   0.0000       0.188750         5.1361 
  82   0.0000       0.194883         5.3030 
  83   0.0000       0.205001         5.5784 
  84   0.0000       0.206948         5.6314 
  85   0.0000       0.218783         5.9534 
  86   0.0000       0.226209         6.1554 
  87   0.0000       0.234239         6.3740 
  88   0.0000       0.239095         6.5061 
  89   0.0000       0.252223         6.8633 
  90   0.0000       0.255304         6.9472 
  91   0.0000       0.266489         7.2515 
  92   0.0000       0.269678         7.3383 
  93   0.0000       0.272596         7.4177 
  94   0.0000       0.286139         7.7862 
  95   0.0000       0.297514         8.0958 
  96   0.0000       0.302862         8.2413 
  97   0.0000       0.310158         8.4398 
  98   0.0000       0.313746         8.5375 
  99   0.0000       0.316394         8.6095 
 100   0.0000       0.330149         8.9838 
 101   0.0000       0.335667         9.1340 
 102   0.0000       0.337677         9.1886 
 103   0.0000       0.344208         9.3664 
 104   0.0000       0.349235         9.5032 
 105   0.0000       0.363520         9.8919 
 106   0.0000       0.382674        10.4131 
 107   0.0000       0.385978        10.5030 
 108   0.0000       0.390271        10.6198 
 109   0.0000       0.400169        10.8892 
 110   0.0000       0.407999        11.1022 
 111   0.0000       0.410262        11.1638 
 112   0.0000       0.412187        11.2162 
 113   0.0000       0.420360        11.4386 
 114   0.0000       0.428947        11.6722 
 115   0.0000       0.438722        11.9382 
 116   0.0000       0.442931        12.0528 
 117   0.0000       0.445477        12.1220 
 118   0.0000       0.460703        12.5364 
 119   0.0000       0.462436        12.5835 
 120   0.0000       0.486763        13.2455 
 121   0.0000       0.493336        13.4244 
 122   0.0000       0.496101        13.4996 
 123   0.0000       0.507486        13.8094 
 124   0.0000       0.517362        14.0781 
 125   0.0000       0.529972        14.4213 
 126   0.0000       0.546266        14.8647 
 127   0.0000       0.554245        15.0818 
 128   0.0000       0.560020        15.2389 
 129   0.0000       0.566116        15.4048 
 130   0.0000       0.574692        15.6382 
 131   0.0000       0.583034        15.8652 
 132   0.0000       0.598135        16.2761 
 133   0.0000       0.606280        16.4977 
 134   0.0000       0.621800        16.9200 
 135   0.0000       0.637108        17.3366 
 136   0.0000       0.647371        17.6159 
 137   0.0000       0.668500        18.1908 
 138   0.0000       0.680539        18.5184 
 139   0.0000       0.690562        18.7912 
 140   0.0000       0.699951        19.0466 
 141   0.0000       0.717166        19.5151 
 142   0.0000       0.723685        19.6925 
 143   0.0000       0.735589        20.0164 
 144   0.0000       0.746760        20.3204 
 145   0.0000       0.770279        20.9604 
 146   0.0000       0.775273        21.0963 
 147   0.0000       0.780298        21.2330 
 148   0.0000       0.786127        21.3916 
 149   0.0000       0.797446        21.6996 
 150   0.0000       0.819226        22.2923 
 151   0.0000       0.836445        22.7608 
 152   0.0000       0.837036        22.7769 
 153   0.0000       0.844483        22.9796 
 154   0.0000       0.851637        23.1742 
 155   0.0000       0.869962        23.6729 
 156   0.0000       0.875755        23.8305 
 157   0.0000       0.880944        23.9717 
 158   0.0000       0.895932        24.3795 
 159   0.0000       0.913619        24.8608 
 160   0.0000       0.943670        25.6786 
 161   0.0000       0.952200        25.9107 
 162   0.0000       0.967915        26.3383 
 163   0.0000       0.979249        26.6467 
 164   0.0000       0.992051        26.9951 
 165   0.0000       1.010694        27.5024 
 166   0.0000       1.025557        27.9068 
 167   0.0000       1.036552        28.2060 
 168   0.0000       1.048587        28.5335 
 169   0.0000       1.066849        29.0304 
 170   0.0000       1.076208        29.2851 
 171   0.0000       1.087258        29.5858 
 172   0.0000       1.113912        30.3111 
 173   0.0000       1.141037        31.0492 
 174   0.0000       1.147943        31.2371 
 175   0.0000       1.152225        31.3536 
 176   0.0000       1.177647        32.0454 
 177   0.0000       1.188979        32.3538 
 178   0.0000       1.202086        32.7104 
 179   0.0000       1.204004        32.7626 
 180   0.0000       1.222346        33.2617 
 181   0.0000       1.253380        34.1062 
 182   0.0000       1.258272        34.2393 
 183   0.0000       1.281980        34.8844 
 184   0.0000       1.283120        34.9155 
 185   0.0000       1.292118        35.1603 
 186   0.0000       1.311988        35.7010 
 187   0.0000       1.321815        35.9684 
 188   0.0000       1.337590        36.3977 
 189   0.0000       1.375506        37.4294 
 190   0.0000       1.377800        37.4918 
 191   0.0000       1.385606        37.7042 
 192   0.0000       1.407461        38.2990 
 193   0.0000       1.411312        38.4038 
 194   0.0000       1.445505        39.3342 
 195   0.0000       1.457492        39.6604 
 196   0.0000       1.466548        39.9068 
 197   0.0000       1.493244        40.6332 
 198   0.0000       1.503767        40.9196 
 199   0.0000       1.524373        41.4803 
 200   0.0000       1.528376        41.5892 
 201   0.0000       1.541666        41.9509 
 202   0.0000       1.563106        42.5343 
 203   0.0000       1.567700        42.6593 
 204   0.0000       1.588045        43.2129 
 205   0.0000       1.601683        43.5840 
 206   0.0000       1.612249        43.8715 
 207   0.0000       1.630165        44.3590 
 208   0.0000       1.634183        44.4684 
 209   0.0000       1.637924        44.5702 
 210   0.0000       1.649973        44.8981 
 211   0.0000       1.676261        45.6134 
 212   0.0000       1.684032        45.8248 
 213   0.0000       1.691901        46.0390 
 214   0.0000       1.707590        46.4659 
 215   0.0000       1.734136        47.1882 
 216   0.0000       1.746329        47.5200 
 217   0.0000       1.776960        48.3535 
 218   0.0000       1.778319        48.3905 
 219   0.0000       1.796390        48.8823 
 220   0.0000       1.804742        49.1095 
 221   0.0000       1.807593        49.1871 
 222   0.0000       1.828436        49.7543 
 223   0.0000       1.852962        50.4217 
 224   0.0000       1.861012        50.6407 
 225   0.0000       1.872616        50.9565 
 226   0.0000       1.890667        51.4477 
 227   0.0000       1.909159        51.9509 
 228   0.0000       1.932846        52.5954 
 229   0.0000       1.936940        52.7068 
 230   0.0000       1.952808        53.1386 
 231   0.0000       1.967390        53.5354 
 232   0.0000       1.976348        53.7792 
 233   0.0000       1.997107        54.3441 
 234   0.0000       2.015797        54.8526 
 235   0.0000       2.027460        55.1700 
 236   0.0000       2.041281        55.5461 
 237   0.0000       2.058026        56.0017 
 238   0.0000       2.073132        56.4128 
 239   0.0000       2.085091        56.7382 
 240   0.0000       2.087198        56.7955 
 241   0.0000       2.100025        57.1446 
 242   0.0000       2.107796        57.3561 
 243   0.0000       2.119958        57.6870 
 244   0.0000       2.136375        58.1337 
 245   0.0000       2.153115        58.5892 
 246   0.0000       2.166546        58.9547 
 247   0.0000       2.178650        59.2841 
 248   0.0000       2.204553        59.9889 
 249   0.0000       2.230587        60.6974 
 250   0.0000       2.247920        61.1690 
 251   0.0000       2.258971        61.4697 
 252   0.0000       2.270607        61.7864 
 253   0.0000       2.327085        63.3232 
 254   0.0000       2.336164        63.5702 
 255   0.0000       2.348259        63.8994 
 256   0.0000       2.365531        64.3694 
 257   0.0000       2.370391        64.5016 
 258   0.0000       2.380919        64.7881 
 259   0.0000       2.385920        64.9242 
 260   0.0000       2.411002        65.6067 
 261   0.0000       2.425520        66.0018 
 262   0.0000       2.432211        66.1838 
 263   0.0000       2.453909        66.7743 
 264   0.0000       2.465395        67.0868 
 265   0.0000       2.470207        67.2178 
 266   0.0000       2.507366        68.2289 
 267   0.0000       2.540082        69.1192 
 268   0.0000       2.543973        69.2250 
 269   0.0000       2.554083        69.5001 
 270   0.0000       2.570786        69.9547 
 271   0.0000       2.577517        70.1378 
 272   0.0000       2.583953        70.3129 
 273   0.0000       2.590074        70.4795 
 274   0.0000       2.602957        70.8301 
 275   0.0000       2.613021        71.1039 
 276   0.0000       2.641517        71.8793 
 277   0.0000       2.653086        72.1941 
 278   0.0000       2.664763        72.5119 
 279   0.0000       2.674168        72.7678 
 280   0.0000       2.697890        73.4133 
 281   0.0000       2.706673        73.6523 
 282   0.0000       2.728366        74.2426 
 283   0.0000       2.744248        74.6748 
 284   0.0000       2.753975        74.9395 
 285   0.0000       2.766084        75.2690 
 286   0.0000       2.771508        75.4166 
 287   0.0000       2.779980        75.6471 
 288   0.0000       2.792759        75.9948 
 289   0.0000       2.801815        76.2413 
 290   0.0000       2.820352        76.7457 
 291   0.0000       2.839928        77.2784 
 292   0.0000       2.851522        77.5938 
 293   0.0000       2.860255        77.8315 
 294   0.0000       2.878504        78.3281 
 295   0.0000       2.900912        78.9378 
 296   0.0000       2.927877        79.6716 
 297   0.0000       2.935945        79.8911 
 298   0.0000       2.949398        80.2572 
 299   0.0000       2.955900        80.4341 
 300   0.0000       2.966886        80.7331 
 301   0.0000       2.974604        80.9431 
 302   0.0000       3.004964        81.7692 
 303   0.0000       3.010186        81.9113 
 304   0.0000       3.023539        82.2747 
 305   0.0000       3.047688        82.9318 
 306   0.0000       3.071111        83.5692 
 307   0.0000       3.083624        83.9097 
 308   0.0000       3.085741        83.9673 
 309   0.0000       3.104107        84.4671 
 310   0.0000       3.113420        84.7205 
 311   0.0000       3.123633        84.9984 
 312   0.0000       3.128295        85.1252 
 313   0.0000       3.143842        85.5483 
 314   0.0000       3.154238        85.8312 
 315   0.0000       3.168448        86.2179 
 316   0.0000       3.183347        86.6233 
 317   0.0000       3.192820        86.8810 
 318   0.0000       3.208597        87.3104 
 319   0.0000       3.216765        87.5326 
 320   0.0000       3.236785        88.0774 
 321   0.0000       3.257938        88.6530 
 322   0.0000       3.276316        89.1531 
 323   0.0000       3.277366        89.1817 
 324   0.0000       3.282826        89.3302 
 325   0.0000       3.306558        89.9760 
 326   0.0000       3.313294        90.1593 
 327   0.0000       3.326057        90.5066 
 328   0.0000       3.341001        90.9133 
 329   0.0000       3.362782        91.5059 
 330   0.0000       3.370252        91.7092 
 331   0.0000       3.381395        92.0124 
 332   0.0000       3.393688        92.3469 
 333   0.0000       3.413177        92.8773 
 334   0.0000       3.422322        93.1261 
 335   0.0000       3.433638        93.4340 
 336   0.0000       3.439885        93.6040 
 337   0.0000       3.462507        94.2196 
 338   0.0000       3.477329        94.6229 
 339   0.0000       3.522481        95.8516 
 340   0.0000       3.560702        96.8916 
 341   0.0000       3.563164        96.9586 
 342   0.0000       3.587625        97.6242 
 343   0.0000       3.591398        97.7269 
 344   0.0000       3.610629        98.2502 
 345   0.0000       3.628117        98.7261 
 346   0.0000       3.638670        99.0132 
 347   0.0000       3.644127        99.1617 
 348   0.0000       3.648805        99.2890 
 349   0.0000       3.679047       100.1120 
 350   0.0000       3.704081       100.7932 
 351   0.0000       3.732449       101.5651 
 352   0.0000       3.754715       102.1710 
 353   0.0000       3.762964       102.3954 
 354   0.0000       3.787386       103.0600 
 355   0.0000       3.799937       103.4016 
 356   0.0000       3.819982       103.9470 
 357   0.0000       3.824377       104.0666 
 358   0.0000       3.845544       104.6426 
 359   0.0000       3.864672       105.1631 
 360   0.0000       3.897933       106.0681 
 361   0.0000       3.910776       106.4176 
 362   0.0000       3.946206       107.3817 
 363   0.0000       3.950998       107.5121 
 364   0.0000       4.010407       109.1287 
 365   0.0000       4.019231       109.3688 
 366   0.0000       4.038587       109.8956 
 367   0.0000       4.061866       110.5290 
 368   0.0000       4.083500       111.1177 
 369   0.0000       4.105208       111.7084 
 370   0.0000       4.111572       111.8816 
 371   0.0000       4.128897       112.3530 
 372   0.0000       4.143801       112.7586 
 373   0.0000       4.198104       114.2362 
 374   0.0000       4.198868       114.2570 
 375   0.0000       4.206282       114.4588 
 376   0.0000       4.234439       115.2249 
 377   0.0000       4.257664       115.8569 
 378   0.0000       4.302514       117.0774 
 379   0.0000       4.326101       117.7192 
 380   0.0000       4.342221       118.1578 
 381   0.0000       4.365540       118.7924 
 382   0.0000       4.418872       120.2436 
 383   0.0000       4.454499       121.2131 
 384   0.0000       4.490104       122.1819 
 385   0.0000       4.529607       123.2569 
 386   0.0000       4.577954       124.5725 
 387   0.0000       4.617274       125.6424 
 388   0.0000       4.643757       126.3630 
 389   0.0000       4.697292       127.8198 
 390   0.0000       4.711326       128.2017 
 391   0.0000       4.756673       129.4356 
 392   0.0000       4.769157       129.7754 
 393   0.0000       4.782133       130.1285 
 394   0.0000       4.804825       130.7459 
 395   0.0000       4.831168       131.4628 
 396   0.0000       4.862641       132.3192 
 397   0.0000       4.894210       133.1782 
 398   0.0000       4.927066       134.0723 
 399   0.0000       4.979241       135.4920 
 400   0.0000       4.997512       135.9892 
 401   0.0000       5.014527       136.4522 
 402   0.0000       5.096560       138.6844 
 403   0.0000       5.112361       139.1144 
 404   0.0000       5.155859       140.2980 
 405   0.0000       5.159101       140.3863 
 406   0.0000       5.206501       141.6761 
 407   0.0000       5.239923       142.5855 
 408   0.0000       5.306405       144.3946 
 409   0.0000       5.326425       144.9394 
 410   0.0000       5.362570       145.9230 
 411   0.0000       5.384814       146.5282 
 412   0.0000       5.386706       146.5797 
 413   0.0000       5.467692       148.7835 
 414   0.0000       5.506859       149.8493 
 415   0.0000       5.547940       150.9671 
 416   0.0000       5.635433       153.3479 
 417   0.0000       5.691259       154.8670 
 418   0.0000       5.691302       154.8682 
 419   0.0000       5.692019       154.8877 
 420   0.0000       5.694923       154.9667 
 421   0.0000       5.708243       155.3292 
[...]
     34       0.000270  -0.000088   0.001892  -0.027028   0.032595  -0.060973
     35       0.000034   0.000037   0.000762  -0.008120   0.009758  -0.019522
     36      -0.000002  -0.000095  -0.000615  -0.000535   0.000776  -0.002872
     37      -0.000157   0.000061  -0.000959   0.000098   0.000037   0.001391
     38       0.000007  -0.000001  -0.000299  -0.000098   0.000131  -0.000259
     39       0.000020   0.000077   0.000330  -0.000069  -0.000016   0.000734
     40       0.000008  -0.000000   0.000119   0.000036  -0.000071  -0.000077
     41      -0.000016   0.000007   0.000090  -0.000005  -0.000008   0.000104
     42      -0.000084  -0.000048   0.002926  -0.000066   0.000248  -0.000203
     43      -0.000112  -0.000026  -0.007238  -0.000137   0.000707  -0.001272
     44      -0.000026  -0.000037  -0.001101  -0.000016   0.000196  -0.000302
     45       0.003552  -0.003942  -0.400501   0.011495  -0.002718  -0.020030
     46       0.004242  -0.006067  -0.850760   0.025971  -0.006886  -0.044327
     47       0.002652  -0.002903  -0.323273   0.009475  -0.002461  -0.016563
     48       0.142264  -0.086005  -0.000749  -0.000404  -0.005074  -0.002338
     49      -0.497068   0.311756  -0.000744   0.007680   0.015349   0.003748
     50       0.380803  -0.242314  -0.000278  -0.004979  -0.012181  -0.003494
     51      -0.104492   0.066520  -0.005066   0.013559   0.009844  -0.002579
     52      -0.427778   0.283974  -0.009381   0.062743   0.050542  -0.004459
     53      -0.280942   0.186691  -0.006986   0.042232   0.033335  -0.003356
     54       0.088304   0.114825   0.002273   0.095600   0.077145  -0.000487
     55       0.351725   0.456570   0.009216   0.432117   0.351474  -0.001568
     56       0.244938   0.320467   0.006215   0.302154   0.246611  -0.000692
     57      -0.321926  -0.588662   0.015261   0.519362   0.420665  -0.004671
     58       0.001410   0.008924  -0.000662  -0.015047  -0.012120   0.000060
     59      -0.109083  -0.197754   0.005342   0.164534   0.133643  -0.000968
     60      -0.002932   0.003327   0.027165   0.267951  -0.331259  -0.300871
     61       0.003372  -0.004227  -0.041998  -0.438315   0.542593   0.486440
     62      -0.001268   0.000606  -0.000296  -0.005933   0.007002   0.004939
     63      -0.001231   0.000340  -0.011419   0.153153  -0.184746   0.340890
     64      -0.002908   0.000703  -0.024037   0.321001  -0.387164   0.706252
     65      -0.001021   0.000445  -0.007360   0.098361  -0.118568   0.217629
     66      -0.000004  -0.000013   0.000014   0.000012   0.000005   0.000008
     67       0.000007   0.000005   0.000022  -0.000009   0.000006   0.000037
     68       0.000000  -0.000008  -0.000046   0.000014   0.000000  -0.000030
                 66         67         68    
      0      -0.000028  -0.000003   0.034263
      1      -0.000000   0.000007   0.048651
      2       0.000013  -0.000016   0.017613
      3      -0.000014   0.000033   0.001494
      4      -0.000062   0.000024   0.001662
      5      -0.000000  -0.000013   0.000846
      6       0.000052  -0.000024  -0.000073
      7      -0.000008   0.000050  -0.001036
      8      -0.000008  -0.000014  -0.000504
      9      -0.000004   0.000098   0.000076
     10       0.000027   0.000042  -0.000139
     11       0.000050  -0.000017   0.000045
     12      -0.000122   0.000064  -0.000022
     13      -0.000551  -0.000266  -0.000043
     14      -0.000124  -0.000386  -0.000019
     15       0.000798   0.000346  -0.000008
     16       0.001626   0.001164  -0.000001
     17       0.000744   0.000644   0.000019
     18       0.039808  -0.024358   0.000024
     19       0.041493   0.042502   0.000013
     20      -0.009704   0.064760  -0.000003
     21      -0.406068   0.470420  -0.000071
     22       0.048893  -0.037805   0.000033
     23       0.520007  -0.580070   0.000155
     24      -0.131536  -0.131532  -0.000062
     25      -0.630166  -0.558438  -0.000226
     26      -0.379240  -0.323340  -0.000116
     27      -0.011096  -0.004140  -0.000362
     28       0.007188   0.007219  -0.000014
     29      -0.007671   0.010769   0.000020
     30       0.000031  -0.000062   0.000262
     31       0.000035  -0.000041   0.000031
     32       0.000012   0.000006   0.000121
     33      -0.000039   0.000029  -0.000124
     34       0.000035  -0.000008   0.000279
     35      -0.000005   0.000020   0.000012
     36       0.000130  -0.000039   0.000187
     37       0.000007   0.000012  -0.000824
     38       0.000041  -0.000019  -0.000225
     39      -0.000077   0.000020  -0.000250
     40      -0.000008   0.000008   0.000058
     41      -0.000007  -0.000000  -0.000030
     42       0.000238   0.000030  -0.561358
     43       0.000201   0.000038  -0.775212
     44       0.000088  -0.000009  -0.282931
     45      -0.000221  -0.000019  -0.000205
     46      -0.000489  -0.000118   0.003607
     47      -0.000201  -0.000094   0.000690
     48      -0.000392  -0.000512   0.000216
     49      -0.001668   0.000802  -0.000050
     50       0.002034  -0.001084   0.000087
     51       0.001602   0.001320   0.000180
     52       0.003799   0.002293   0.000255
     53       0.000673  -0.000367   0.000167
     54      -0.003596  -0.003017  -0.000040
     55      -0.016924  -0.015515   0.000072
     56      -0.006737  -0.007217   0.000078
     57      -0.007917  -0.000028   0.000272
     58      -0.000464  -0.000333   0.000027
     59      -0.002338  -0.000516  -0.000004
     60       0.000045  -0.000017   0.000129
     61      -0.000042   0.000052   0.000099
     62      -0.000007   0.000024  -0.000014
     63      -0.000164   0.000027  -0.000730
     64      -0.000302   0.000032  -0.000673
     65      -0.000153  -0.000012  -0.000278
     66      -0.000037   0.000006   0.000008
     67       0.000005  -0.000011  -0.000006
     68      -0.000002  -0.000006  -0.000007


-----------
IR SPECTRUM
-----------

 Mode   freq       eps      Int      T**2         TX        TY        TZ
       cm**-1   L/(mol*cm) km/mol    a.u.
----------------------------------------------------------------------------
  6:     32.87   0.001713    8.66  0.016266  ( 0.070765 -0.043330 -0.096854)
  7:     50.71   0.001862    9.41  0.011460  (-0.003557 -0.094039  0.051027)
  8:     56.36   0.001006    5.09  0.005572  (-0.041928 -0.052468  0.032576)
  9:     97.29   0.002558   12.93  0.008207  ( 0.089851 -0.008043  0.008287)
 10:    145.09   0.001445    7.30  0.003108  (-0.054893  0.007284  0.006461)
 11:    147.48   0.011518   58.20  0.024371  ( 0.138546  0.013971  0.070577)
 12:    169.90   0.000197    1.00  0.000362  ( 0.003104  0.003049  0.018530)
 13:    253.39   0.011185   56.53  0.013775  (-0.071275 -0.003656  0.093175)
 14:    282.88   0.002248   11.36  0.002480  (-0.007792 -0.024412  0.042697)
 15:    296.74   0.001131    5.71  0.001189  (-0.003664  0.020177  0.027724)
 16:    318.41   0.002462   12.44  0.002413  (-0.037000 -0.015414  0.028390)
 17:    329.35   0.008827   44.61  0.008363  ( 0.000591 -0.013477  0.090451)
 18:    339.07   0.015270   77.17  0.014054  (-0.018957 -0.014624  0.116106)
 19:    408.29   0.001321    6.68  0.001010  (-0.000990 -0.023376  0.021502)
 20:    418.91   0.003168   16.01  0.002360  ( 0.017882  0.034171 -0.029542)
 21:    444.26   0.003587   18.13  0.002520  (-0.041618  0.027669  0.004679)
 22:    510.44   0.001023    5.17  0.000625  ( 0.013063  0.015965 -0.014128)
 23:    572.95   0.003148   15.91  0.001715  ( 0.015349 -0.037929 -0.006371)
 24:    589.42   0.005946   30.05  0.003148  ( 0.009594  0.014348  0.053389)
 25:    683.30   0.002407   12.16  0.001099  (-0.026228 -0.019526 -0.005494)
 26:    696.69   0.001732    8.75  0.000776  (-0.008481 -0.026097  0.004791)
 27:    758.27   0.003712   18.76  0.001528  (-0.031561  0.003481 -0.022795)
 28:    784.79   0.010575   53.44  0.004205  (-0.020183 -0.019171  0.058566)
 29:    813.40   0.002736   13.83  0.001050  ( 0.016095 -0.008610  0.026767)
 30:    835.97   0.010385   52.48  0.003877  ( 0.052943 -0.008621 -0.031614)
 31:    853.92   0.006144   31.05  0.002245  (-0.039378  0.025939 -0.004683)
 32:    892.29   0.000869    4.39  0.000304  ( 0.014713 -0.001324  0.009262)
 33:    902.38   0.005214   26.35  0.001803  ( 0.018126  0.016749  0.034553)
 34:    937.61   0.005538   27.99  0.001843  (-0.008701 -0.041506  0.006684)
 35:   1000.82   0.002112   10.67  0.000658  ( 0.000495 -0.021122  0.014562)
 36:   1060.22   0.002505   12.66  0.000737  (-0.008032 -0.025875 -0.001824)
 37:   1067.48   0.015529   78.48  0.004540  ( 0.027362 -0.061160 -0.007097)
 38:   1083.30   0.050940  257.43  0.014674  ( 0.077058 -0.089236 -0.027804)
 39:   1113.17   0.024538  124.00  0.006879  (-0.069779  0.041929  0.015865)
 40:   1160.65   0.005417   27.38  0.001456  (-0.034111  0.012242 -0.011960)
 41:   1210.19   0.009307   47.03  0.002400  (-0.019642  0.044808  0.002516)
 42:   1230.14   0.007413   37.46  0.001881  (-0.034160  0.021468  0.015901)
 43:   1246.64   0.015063   76.12  0.003771  (-0.044964  0.038893  0.015370)
 44:   1284.96   0.000181    0.91  0.000044  ( 0.003623 -0.005436  0.001105)
 45:   1313.91   0.004176   21.10  0.000992  (-0.017779  0.020228  0.016324)
 46:   1334.56   0.012560   63.47  0.002937  (-0.050652  0.018465 -0.005509)
 47:   1357.37   0.002649   13.39  0.000609  ( 0.008549 -0.011817  0.019910)
 48:   1372.78   0.061763  312.13  0.014040  ( 0.117789 -0.003626 -0.012363)
 49:   1397.42   0.006385   32.27  0.001426  ( 0.009426 -0.027094 -0.024554)
 50:   1408.70   0.003991   20.17  0.000884  ( 0.009951 -0.009048 -0.026519)
 51:   1427.12   0.001808    9.14  0.000395  ( 0.000392 -0.000079 -0.019879)
 52:   1444.12   0.014232   71.92  0.003075  (-0.018855 -0.039570  0.033972)
 53:   1489.27   0.086236  435.80  0.018070  (-0.133181 -0.007206  0.016754)
 54:   1500.62   0.077718  392.75  0.016162  (-0.126941  0.003662 -0.005868)
 55:   1539.11   0.004217   21.31  0.000855  (-0.020499 -0.004414  0.020379)
 56:   1552.93   0.046491  234.95  0.009343  ( 0.089136  0.034156  0.015189)
 57:   1572.97   0.017286   87.36  0.003429  (-0.043251 -0.039137  0.005210)
 58:   2667.29   0.635126  3209.67  0.074308  ( 0.262961  0.000395  0.071826)
 59:   2970.89   0.010134   51.21  0.001065  (-0.023121 -0.004177 -0.022638)
 60:   3011.83   0.000644    3.25  0.000067  ( 0.001630  0.007287 -0.003313)
 61:   3023.81   0.004940   24.97  0.000510  ( 0.012063 -0.018985 -0.001969)
 62:   3066.14   0.002236   11.30  0.000228  ( 0.001369  0.012617  0.008157)
 63:   3075.90   0.005253   26.55  0.000533  (-0.021029 -0.003611 -0.008815)
 64:   3076.07   0.001799    9.09  0.000182  ( 0.011916 -0.006358  0.000237)
 65:   3094.17   0.006957   35.16  0.000702  (-0.005718 -0.025864 -0.000183)
 66:   3360.45   0.020559  103.90  0.001909  (-0.036305 -0.023541  0.006081)
 67:   3418.38   0.024301  122.81  0.002218  ( 0.015443 -0.022697 -0.038273)
 68:   3653.92   0.022960  116.03  0.001961  (-0.002863 -0.041306 -0.015700)

* The epsilon (eps) is given for a Dirac delta lineshape.
** The dipole moment derivative (T) already includes vibrational overlap.

The first frequency considered to be a vibration is 6
The total number of vibrations considered is 63


--------------------------
THERMOCHEMISTRY AT 298.15K
--------------------------

Temperature         ... 298.15 K
Pressure            ... 1.00 atm
Total Mass          ... 216.73 AMU

Throughout the following assumptions are being made:
  (1) The electronic state is orbitally nondegenerate
      but the spin degeneracy is treated
  (2) There are no thermally accessible electronically excited states
  (3) Hindered rotations indicated by low frequency modes are not
      treated as such but are treated as vibrations and this may
      cause some error
  (4) All equations used are the standard statistical mechanics
      equations for an ideal gas
  (5) All vibrations are strictly harmonic

freq.      32.87  E(vib)   ...       0.55 
freq.      50.71  E(vib)   ...       0.52 
freq.      56.36  E(vib)   ...       0.52 
freq.      97.29  E(vib)   ...       0.46 
freq.     145.09  E(vib)   ...       0.41 
freq.     147.48  E(vib)   ...       0.41 
freq.     169.90  E(vib)   ...       0.38 
freq.     253.39  E(vib)   ...       0.30 
freq.     282.88  E(vib)   ...       0.28 
freq.     296.74  E(vib)   ...       0.27 
freq.     318.41  E(vib)   ...       0.25 
freq.     329.35  E(vib)   ...       0.24 
freq.     339.07  E(vib)   ...       0.23 
freq.     408.29  E(vib)   ...       0.19 
freq.     418.91  E(vib)   ...       0.18 
freq.     444.26  E(vib)   ...       0.17 
freq.     510.44  E(vib)   ...       0.14 
freq.     572.95  E(vib)   ...       0.11 
freq.     589.42  E(vib)   ...       0.10 
freq.     683.30  E(vib)   ...       0.08 
freq.     696.69  E(vib)   ...       0.07 
freq.     758.27  E(vib)   ...       0.06 
freq.     784.79  E(vib)   ...       0.05 
freq.     813.40  E(vib)   ...       0.05 
freq.     835.97  E(vib)   ...       0.04 
freq.     853.92  E(vib)   ...       0.04 
freq.     892.29  E(vib)   ...       0.03 
freq.     902.38  E(vib)   ...       0.03 
freq.     937.61  E(vib)   ...       0.03 
freq.    1000.82  E(vib)   ...       0.02 
freq.    1060.22  E(vib)   ...       0.02 
freq.    1067.48  E(vib)   ...       0.02 
freq.    1083.30  E(vib)   ...       0.02 
freq.    1113.17  E(vib)   ...       0.01 
freq.    1160.65  E(vib)   ...       0.01 
freq.    1210.19  E(vib)   ...       0.01 
freq.    1230.14  E(vib)   ...       0.01 
freq.    1246.64  E(vib)   ...       0.01 
freq.    1284.96  E(vib)   ...       0.01 
freq.    1313.91  E(vib)   ...       0.01 
freq.    1334.56  E(vib)   ...       0.01 
freq.    1357.37  E(vib)   ...       0.01 
freq.    1372.78  E(vib)   ...       0.01 
freq.    1397.42  E(vib)   ...       0.00 
freq.    1408.70  E(vib)   ...       0.00 
freq.    1427.12  E(vib)   ...       0.00 
freq.    1444.12  E(vib)   ...       0.00 
freq.    1489.27  E(vib)   ...       0.00 
freq.    1500.62  E(vib)   ...       0.00 
freq.    1539.11  E(vib)   ...       0.00 
freq.    1552.93  E(vib)   ...       0.00 
freq.    1572.97  E(vib)   ...       0.00 
freq.    2667.29  E(vib)   ...       0.00 
freq.    2970.89  E(vib)   ...       0.00 
freq.    3011.83  E(vib)   ...       0.00 
freq.    3023.81  E(vib)   ...       0.00 
freq.    3066.14  E(vib)   ...       0.00 
freq.    3075.90  E(vib)   ...       0.00 
freq.    3076.07  E(vib)   ...       0.00 
freq.    3094.17  E(vib)   ...       0.00 
freq.    3360.45  E(vib)   ...       0.00 
freq.    3418.38  E(vib)   ...       0.00 
freq.    3653.92  E(vib)   ...       0.00 

------------
INNER ENERGY
------------

The inner energy is: U= E(el) + E(ZPE) + E(vib) + E(rot) + E(trans)
    E(el)   - is the total energy from the electronic structure calculation
              = E(kin-el) + E(nuc-el) + E(el-el) + E(nuc-nuc)
    E(ZPE)  - the the zero temperature vibrational energy from the frequency calculation
    E(vib)  - the the finite temperature correction to E(ZPE) due to population
              of excited vibrational states
    E(rot)  - is the rotational thermal energy
    E(trans)- is the translational thermal energy

Summary of contributions to the inner energy U:
Electronic energy                ...  -2156.54359598 Eh
Zero point energy                ...      0.17817490 Eh     111.81 kcal/mol
Thermal vibrational correction   ...      0.01017770 Eh       6.39 kcal/mol
Thermal rotational correction    ...      0.00141627 Eh       0.89 kcal/mol
Thermal translational correction ...      0.00141627 Eh       0.89 kcal/mol
-----------------------------------------------------------------------
Total thermal energy                  -2156.35241083 Eh


Summary of corrections to the electronic energy:
(perhaps to be used in another calculation)
Total thermal correction                  0.01301024 Eh       8.16 kcal/mol
Non-thermal (ZPE) correction              0.17817490 Eh     111.81 kcal/mol
-----------------------------------------------------------------------
Total correction                          0.19118515 Eh     119.97 kcal/mol


--------
ENTHALPY
--------

The enthalpy is H = U + kB*T
                kB is Boltzmann's constant
Total free energy                 ...  -2156.35241083 Eh 
Thermal Enthalpy correction       ...      0.00094421 Eh       0.59 kcal/mol
-----------------------------------------------------------------------
Total Enthalpy                    ...  -2156.35146662 Eh


Note: Only C1 symmetry has been detected, increase convergence thresholds 
      if your molecule has a higher symmetry. Symmetry factor of 1.0 is   
      used for the rotational entropy correction. 
 

Note: Rotational entropy computed according to Herzberg 
Infrared and Raman Spectra, Chapter V,1, Van Nostrand Reinhold, 1945 
Point Group:  C1, Symmetry Number:   1  
Rotational constants in cm-1:     0.042502     0.019111     0.016998 

Vibrational entropy computed according to the QRRHO of S. Grimme
Chem.Eur.J. 2012 18 9955


-------
ENTROPY
-------

The entropy contributions are T*S = T*(S(el)+S(vib)+S(rot)+S(trans))
     S(el)   - electronic entropy
     S(vib)  - vibrational entropy
     S(rot)  - rotational entropy
     S(trans)- translational entropy
The entropies will be listed as multiplied by the temperature to get
units of energy

Electronic entropy                ...      0.00065446 Eh      0.41 kcal/mol
Vibrational entropy               ...      0.01787212 Eh     11.21 kcal/mol
Rotational entropy                ...      0.01479367 Eh      9.28 kcal/mol
Translational entropy             ...      0.01996671 Eh     12.53 kcal/mol
-----------------------------------------------------------------------
Final entropy term                ...      0.05328696 Eh     33.44 kcal/mol

In case the symmetry of your molecule has not been determined correctly
or in case you have a reason to use a different symmetry number we print 
out the resulting rotational entropy values for sn=1,12 :
 --------------------------------------------------------
|  sn= 1 | S(rot)=       0.01479367 Eh      9.28 kcal/mol|
|  sn= 2 | S(rot)=       0.01413922 Eh      8.87 kcal/mol|
|  sn= 3 | S(rot)=       0.01375638 Eh      8.63 kcal/mol|
|  sn= 4 | S(rot)=       0.01348476 Eh      8.46 kcal/mol|
|  sn= 5 | S(rot)=       0.01327407 Eh      8.33 kcal/mol|
|  sn= 6 | S(rot)=       0.01310193 Eh      8.22 kcal/mol|
|  sn= 7 | S(rot)=       0.01295638 Eh      8.13 kcal/mol|
|  sn= 8 | S(rot)=       0.01283030 Eh      8.05 kcal/mol|
|  sn= 9 | S(rot)=       0.01271910 Eh      7.98 kcal/mol|
|  sn=10 | S(rot)=       0.01261962 Eh      7.92 kcal/mol|
|  sn=11 | S(rot)=       0.01252963 Eh      7.86 kcal/mol|
|  sn=12 | S(rot)=       0.01244747 Eh      7.81 kcal/mol|
 --------------------------------------------------------


-------------------
GIBBS FREE ENERGY
-------------------

The Gibbs free energy is G = H - T*S

Total enthalpy                    ...  -2156.35146662 Eh 
Total entropy correction          ...     -0.05328696 Eh    -33.44 kcal/mol
-----------------------------------------------------------------------
Final Gibbs free energy         ...  -2156.40475358 Eh

For completeness - the Gibbs free energy minus the electronic energy
G-E(el)                           ...      0.13884240 Eh     87.12 kcal/mol



Timings for individual modules:

Sum of individual times         ...     1853.388 sec (=  30.890 min)
GTO integral calculation        ...        4.409 sec (=   0.073 min)   0.2 %
SCF iterations                  ...       71.370 sec (=   1.190 min)   3.9 %
SCF Gradient evaluation         ...       17.785 sec (=   0.296 min)   1.0 %
Geometry relaxation             ...        0.104 sec (=   0.002 min)   0.0 %
Numerical frequency calculation ...     1759.720 sec (=  29.329 min)  94.9 %



                             ****ORCA TERMINATED NORMALLY****
TOTAL RUN TIME: 0 days 2 hours 18 minutes 55 seconds 39 msec
