
                                 *****************
                                 * O   R   C   A *
                                 *****************

                                            #,                                       
                                            ###                                      
                                            ####                                     
                                            #####                                    
                                            ######                                   
                                           ########,                                 
                                     ,,################,,,,,                         
                               ,,#################################,,                 
                          ,,##########################################,,             
                       ,#########################################, ''#####,          
                    ,#############################################,,   '####,        
                  ,##################################################,,,,####,       
                ,###########''''           ''''###############################       
              ,#####''   ,,,,##########,,,,          '''####'''          '####       
            ,##' ,,,,###########################,,,                        '##       
           ' ,,###''''                  '''############,,,                           
         ,,##''                                '''############,,,,        ,,,,,,###''
      ,#''                                            '''#######################'''  
     '                                                          ''''####''''         
             ,#######,   #######,   ,#######,      ##                                
            ,#'     '#,  ##    ##  ,#'     '#,    #''#        ######   ,####,        
            ##       ##  ##   ,#'  ##            #'  '#       #        #'  '#        
            ##       ##  #######   ##           ,######,      #####,   #    #        
            '#,     ,#'  ##    ##  '#,     ,#' ,#      #,         ##   #,  ,#        
             '#######'   ##     ##  '#######'  #'      '#     #####' # '####'        



                  #######################################################
                  #                        -***-                        #
                  #          Department of theory and spectroscopy      #
                  #    Directorship and core code : Frank Neese         #
                  #        Max Planck Institute fuer Kohlenforschung    #
                  #                Kaiser Wilhelm Platz 1               #
                  #                 D-45470 Muelheim/Ruhr               #
                  #                      Germany                        #
                  #                                                     #
                  #                  All rights reserved                #
                  #                        -***-                        #
                  #######################################################


                         Program Version 5.0.1 -  RELEASE  -


 With contributions from (in alphabetic order):
   Daniel Aravena         : Magnetic Suceptibility
   Michael Atanasov       : Ab Initio Ligand Field Theory (pilot matlab implementation)
   Alexander A. Auer      : GIAO ZORA, VPT2 properties, NMR spectrum
   Ute Becker             : Parallelization
   Giovanni Bistoni       : ED, misc. LED, open-shell LED, HFLD
   Martin Brehm           : Molecular dynamics
   Dmytro Bykov           : SCF Hessian
   Vijay G. Chilkuri      : MRCI spin determinant printing, contributions to CSF-ICE
   Dipayan Datta          : RHF DLPNO-CCSD density
   Achintya Kumar Dutta   : EOM-CC, STEOM-CC
   Dmitry Ganyushin       : Spin-Orbit,Spin-Spin,Magnetic field MRCI
   Miquel Garcia          : C-PCM and meta-GGA Hessian, CC/C-PCM, Gaussian charge scheme
   Yang Guo               : DLPNO-NEVPT2, F12-NEVPT2, CIM, IAO-localization
   Andreas Hansen         : Spin unrestricted coupled pair/coupled cluster methods
   Benjamin Helmich-Paris : MC-RPA, TRAH-SCF, COSX integrals
   Lee Huntington         : MR-EOM, pCC
   Robert Izsak           : Overlap fitted RIJCOSX, COSX-SCS-MP3, EOM
   Marcus Kettner         : VPT2
   Christian Kollmar      : KDIIS, OOCD, Brueckner-CCSD(T), CCSD density, CASPT2, CASPT2-K
   Simone Kossmann        : Meta GGA functionals, TD-DFT gradient, OOMP2, MP2 Hessian
   Martin Krupicka        : Initial AUTO-CI
   Lucas Lang             : DCDCAS
   Marvin Lechner         : AUTO-CI (C++ implementation), FIC-MRCC
   Dagmar Lenk            : GEPOL surface, SMD
   Dimitrios Liakos       : Extrapolation schemes; Compound Job, initial MDCI parallelization
   Dimitrios Manganas     : Further ROCIS development; embedding schemes
   Dimitrios Pantazis     : SARC Basis sets
   Anastasios Papadopoulos: AUTO-CI, single reference methods and gradients
   Taras Petrenko         : DFT Hessian,TD-DFT gradient, ASA, ECA, R-Raman, ABS, FL, XAS/XES, NRVS
   Peter Pinski           : DLPNO-MP2, DLPNO-MP2 Gradient
   Christoph Reimann      : Effective Core Potentials
   Marius Retegan         : Local ZFS, SOC
   Christoph Riplinger    : Optimizer, TS searches, QM/MM, DLPNO-CCSD(T), (RO)-DLPNO pert. Triples
   Tobias Risthaus        : Range-separated hybrids, TD-DFT gradient, RPA, STAB
   Michael Roemelt        : Original ROCIS implementation
   Masaaki Saitow         : Open-shell DLPNO-CCSD energy and density
   Barbara Sandhoefer     : DKH picture change effects
   Avijit Sen             : IP-ROCIS
   Kantharuban Sivalingam : CASSCF convergence, NEVPT2, FIC-MRCI
   Bernardo de Souza      : ESD, SOC TD-DFT
   Georgi Stoychev        : AutoAux, RI-MP2 NMR, DLPNO-MP2 response
   Willem Van den Heuvel  : Paramagnetic NMR
   Boris Wezisla          : Elementary symmetry handling
   Frank Wennmohs         : Technical directorship


 We gratefully acknowledge several colleagues who have allowed us to
 interface, adapt or use parts of their codes:
   Stefan Grimme, W. Hujo, H. Kruse, P. Pracht,  : VdW corrections, initial TS optimization,
                  C. Bannwarth, S. Ehlert          DFT functionals, gCP, sTDA/sTD-DF
   Ed Valeev, F. Pavosevic, A. Kumar             : LibInt (2-el integral package), F12 methods
   Garnet Chan, S. Sharma, J. Yang, R. Olivares  : DMRG
   Ulf Ekstrom                                   : XCFun DFT Library
   Mihaly Kallay                                 : mrcc  (arbitrary order and MRCC methods)
   Jiri Pittner, Ondrej Demel                    : Mk-CCSD
   Frank Weinhold                                : gennbo (NPA and NBO analysis)
   Christopher J. Cramer and Donald G. Truhlar   : smd solvation model
   Lars Goerigk                                  : TD-DFT with DH, B97 family of functionals
   V. Asgeirsson, H. Jonsson                     : NEB implementation
   FAccTs GmbH                                   : IRC, NEB, NEB-TS, DLPNO-Multilevel, CI-OPT
                                                   MM, QMMM, 2- and 3-layer-ONIOM, Crystal-QMMM,
                                                   LR-CPCM, SF, NACMEs, symmetry and pop. for TD-DFT,
                                                   nearIR, NL-DFT gradient (VV10), updates on ESD,
                                                   ML-optimized integration grids
   S Lehtola, MJT Oliveira, MAL Marques          : LibXC Library
   Liviu Ungur et al                             : ANISO software


 Your calculation uses the libint2 library for the computation of 2-el integrals
 For citations please refer to: http://libint.valeyev.net

 Your ORCA version has been built with support for libXC version: 5.1.0
 For citations please refer to: https://tddft.org/programs/libxc/

 This ORCA versions uses:
   CBLAS   interface :  Fast vector & matrix operations
   LAPACKE interface :  Fast linear algebra routines
   SCALAPACK package :  Parallel linear algebra routines
   Shared memory     :  Shared parallel matrices
   BLAS/LAPACK       :  OpenBLAS 0.3.15  USE64BITINT DYNAMIC_ARCH NO_AFFINITY Haswell SINGLE_THREADED
        Core in use  :  Haswell
   Copyright (c) 2011-2014, The OpenBLAS Project


Your calculation utilizes the atom-pairwise dispersion correction
with the Becke-Johnson damping scheme (D3BJ)
Cite in your paper:
S.Grimme, S.Ehrlich, L.Goerigk, J Comput Chem, (2011), 32, 1456–1465 
S.Grimme, J.Antony, S.Ehrlich and H.Krieg, J.Chem.Phys., 132, (2010), 154104 
   

================================================================================

----- Orbital basis set information -----
Your calculation utilizes the basis: def2-TZVP
   F. Weigend and R. Ahlrichs, Phys. Chem. Chem. Phys. 7, 3297 (2005).

----- AuxJ basis set information -----
Your calculation utilizes the auxiliary basis: def2/J
   F. Weigend, Phys. Chem. Chem. Phys. 8, 1057 (2006).

================================================================================
                                        WARNINGS
                       Please study these warnings very carefully!
================================================================================


WARNING: Geometry Optimization
  ===> : Switching off AutoStart
         For restart on a previous wavefunction, please use MOREAD

INFO   : the flag for use of the SHARK integral package has been found!

Your calculation utilizes the atom-pairwise dispersion correction
with the Becke-Johnson damping scheme (D3BJ)
Cite in your paper:
S.Grimme, S.Ehrlich, L.Goerigk, J Comput Chem, (2011), 32, 1456–1465 
S.Grimme, J.Antony, S.Ehrlich and H.Krieg, J.Chem.Phys., 132, (2010), 154104 
   

================================================================================

----- Orbital basis set information -----
Your calculation utilizes the basis: def2-SVP
   F. Weigend and R. Ahlrichs, Phys. Chem. Chem. Phys. 7, 3297 (2005).

================================================================================
                                        WARNINGS
                       Please study these warnings very carefully!
================================================================================


INFO   : the flag for use of the SHARK integral package has been found!

Your calculation utilizes the atom-pairwise dispersion correction
with the Becke-Johnson damping scheme (D3BJ)
Cite in your paper:
S.Grimme, S.Ehrlich, L.Goerigk, J Comput Chem, (2011), 32, 1456–1465 
S.Grimme, J.Antony, S.Ehrlich and H.Krieg, J.Chem.Phys., 132, (2010), 154104 
   

================================================================================

----- Orbital basis set information -----
Your calculation utilizes the basis: def2-SVP
   F. Weigend and R. Ahlrichs, Phys. Chem. Chem. Phys. 7, 3297 (2005).

================================================================================
                                        WARNINGS
                       Please study these warnings very carefully!
================================================================================


INFO   : the flag for use of the SHARK integral package has been found!

Your calculation utilizes the atom-pairwise dispersion correction
with the Becke-Johnson damping scheme (D3BJ)
Cite in your paper:
S.Grimme, S.Ehrlich, L.Goerigk, J Comput Chem, (2011), 32, 1456–1465 
S.Grimme, J.Antony, S.Ehrlich and H.Krieg, J.Chem.Phys., 132, (2010), 154104 
   

================================================================================

----- Orbital basis set information -----
Your calculation utilizes the basis: def2-SVP
   F. Weigend and R. Ahlrichs, Phys. Chem. Chem. Phys. 7, 3297 (2005).

================================================================================
                                        WARNINGS
                       Please study these warnings very carefully!
================================================================================


INFO   : the flag for use of the SHARK integral package has been found!

Your calculation utilizes the atom-pairwise dispersion correction
with the Becke-Johnson damping scheme (D3BJ)
Cite in your paper:
S.Grimme, S.Ehrlich, L.Goerigk, J Comput Chem, (2011), 32, 1456–1465 
S.Grimme, J.Antony, S.Ehrlich and H.Krieg, J.Chem.Phys., 132, (2010), 154104 
   

================================================================================

----- Orbital basis set information -----
Your calculation utilizes the basis: def2-SVP
   F. Weigend and R. Ahlrichs, Phys. Chem. Chem. Phys. 7, 3297 (2005).

================================================================================
                                        WARNINGS
                       Please study these warnings very carefully!
================================================================================


INFO   : the flag for use of the SHARK integral package has been found!

================================================================================
                                       INPUT FILE
================================================================================
NAME = ex.inp
|  1> ! PBE D3 def2-TZVP opt 
|  2> 
|  3> %base "M0001"
|  4> %pal nprocs=8 end
|  5> %geom maxiter=75 end
|  6> * xyz 0 1
|  7> O        2.915711     -2.145336     -0.071780
|  8> C        2.182078     -1.035316     -0.216318
|  9> C        0.729710     -1.105456     -0.496832
| 10> C       -0.009761      0.014983     -0.639845
| 11> C       -1.496476     -0.059044     -0.905511
| 12> C       -2.271812     -0.345994      0.408601
| 13> N       -2.054248      0.710545      1.426609
| 14> H       -2.600459      0.540476      2.259362
| 15> H       -1.091500      0.765704      1.725095
| 16> H       -2.317673      1.622921      1.083567
| 17> C        0.660670      1.326672     -0.513475
| 18> C        1.982081      1.393560     -0.260573
| 19> C        2.770665      0.160014     -0.105508
| 20> O        4.241447      0.249090      0.178348
| 21> H        2.428299     -2.956218     -0.163779
| 22> H        0.249945     -2.080013     -0.586611
| 23> H       -1.854382      0.888174     -1.339070
| 24> H       -1.703849     -0.854101     -1.640670
| 25> H       -3.348370     -0.416589      0.171998
| 26> H       -1.952718     -1.323610      0.810152
| 27> H        0.082070      2.246096     -0.608310
| 28> H        2.484339      2.350932     -0.223869
| 29> *
| 30> 
| 31> $new_job
| 32> 
| 33> %base "M0002"
| 34> %pal nprocs=8 end
| 35> %geom maxiter=75 end
| 36> * xyz 0 1
| 37> O        3.036782     -1.702535     -0.306303
| 38> C        2.228842     -0.635493     -0.300185
| 39> C        0.786021     -0.762563     -0.609398
| 40> C       -0.028158      0.314784     -0.598195
| 41> C       -1.507463      0.201663     -0.890934
| 42> C       -2.321226      0.162624      0.430607
| 43> N       -1.965618     -1.005658      1.272309
| 44> H       -2.537300     -1.050369      2.104141
| 45> H       -2.095244     -1.877224      0.779303
| 46> H       -1.007543     -0.975567      1.588679
| 47> C        0.550259      1.635478     -0.274342
| 48> C        1.862765      1.755194      0.003516
| 49> C        2.733302      0.568036     -0.009269
| 50> O        4.193050      0.713740      0.306352
| 51> H        2.607585     -2.522971     -0.521281
| 52> H        0.379714     -1.746234     -0.843910
| 53> H       -1.820982      1.072411     -1.489556
| 54> H       -1.729404     -0.699520     -1.484919
| 55> H       -2.142203      1.096347      0.991942
| 56> H       -3.396004      0.123931      0.178914
| 57> H       -0.093763      2.515081     -0.246660
| 58> H        2.297513      2.729453      0.183049
| 59> *
| 60> 
| 61> $new_job
| 62> 
| 63> %base "M0003"
| 64> %pal nprocs=8 end
| 65> %geom maxiter=75 end
| 66> * xyz 0 1
| 67> O        3.266227     -1.923031      0.058566
| 68> C        2.503268     -0.827159     -0.032295
| 69> C        1.054011     -0.921893     -0.322149
| 70> C        0.288854      0.183707     -0.415727
| 71> C       -1.194899      0.091014     -0.693917
| 72> C       -1.967532     -0.104657      0.637082
| 73> N       -3.430612     -0.190154      0.411878
| 74> H       -3.933738     -0.317680      1.278720
| 75> H       -3.794872      0.647699     -0.018286
| 76> H       -3.674344     -0.966536     -0.186082
| 77> C        0.922929      1.504249     -0.218418
| 78> C        2.238153      1.594719      0.046769
| 79> C        3.059206      0.376299      0.141631
| 80> O        4.526340      0.490008      0.435425
| 81> H        2.801305     -2.741018     -0.076727
| 82> H        0.601652     -1.903620     -0.462029
| 83> H       -1.542037      1.011985     -1.188480
| 84> H       -1.407397     -0.748654     -1.375108
| 85> H       -1.610079     -1.028101      1.125669
| 86> H       -1.740961      0.742621      1.308043
| 87> H        0.317907      2.410130     -0.268514
| 88> H        2.717459      2.564001      0.129175
| 89> *
| 90> 
| 91> $new_job
| 92> 
| 93> %base "M0004"
| 94> %pal nprocs=8 end
| 95> %geom maxiter=75 end
| 96> * xyz 0 1
| 97> O        2.804506     -2.218687     -0.081543
| 98> C        2.120519     -1.074250     -0.222137
| 99> C        0.674742     -1.137289     -0.501641
|100> C       -0.071467     -0.023011     -0.650644
|101> C       -1.557129     -0.106674     -0.916292
|102> C       -2.331361     -0.388052      0.399610
|103> N       -2.120642      0.677585      1.409538
|104> H       -2.666218      0.510628      2.243336
|105> H       -1.158387      0.740868      1.707997
|106> H       -2.389395      1.585677      1.059335
|107> C        0.597476      1.288888     -0.530592
|108> C        1.919106      1.353869     -0.278134
|109> C        2.714693      0.124452     -0.115613
|110> O        4.183718      0.254884      0.167795
|111> H        3.734157     -2.132929      0.097952
|112> H        0.223876     -2.125970     -0.581469
|113> H       -1.919042      0.835501     -1.357442
|114> H       -1.758928     -0.908993     -1.645073
|115> H       -3.407345     -0.466972      0.163048
|116> H       -2.006376     -1.360644      0.808617
|117> H        0.018401      2.207518     -0.630200
|118> H        2.419023      2.312562     -0.244965
|119> *
|120> 
|121> $new_job
|122> 
|123> %base "M0005"
|124> %pal nprocs=8 end
|125> %geom maxiter=75 end
|126> * xyz 0 1
|127> O        2.618028     -1.924163      1.148274
|128> C        1.892695     -0.804126      1.018802
|129> C        0.454162     -0.917308      0.718116
|130> C       -0.312430      0.161677      0.583028
|131> C       -1.792763      0.047744      0.298897
|132> C       -2.076905      0.288552     -1.208205
|133> N       -1.400607     -0.710281     -2.071197
|134> H       -1.633481     -0.576239     -3.045140
|135> H       -0.394596     -0.654169     -2.010265
|136> H       -1.666778     -1.654558     -1.832485
|137> C        0.304564      1.494500      0.736602
|138> C        1.600021      1.615279      1.003317
|139> C        2.439451      0.414011      1.154984
|140> O        3.898593      0.594624      1.461011
|141> H        3.541335     -1.806583      1.341918
|142> H        0.048366     -1.922922      0.613273
|143> H       -2.178466     -0.942209      0.591250
|144> H       -2.330548      0.799415      0.899384
|145> H       -3.168301      0.239800     -1.370850
|146> H       -1.742895      1.305141     -1.480160
|147> H       -0.311453      2.389346      0.641705
|148> H        2.079814      2.604480      1.061713
|149> *
|150> 
|151> 
|152> 
|153> 
|154>                          ****END OF INPUT****
================================================================================


                 $$$$$$$$$$$$$$$$$$$$$$$$$$$$$$$$$$$$$$$$$$$$$$ 
                 $ THERE ARE  5 JOBS TO BE PROCESSED THIS RUN $
                 $$$$$$$$$$$$$$$$$$$$$$$$$$$$$$$$$$$$$$$$$$$$$$ 




                 $$$$$$$$$$$$$$$$  JOB NUMBER  1 $$$$$$$$$$$$$$


                       *****************************
                       * Geometry Optimization Run *
                       *****************************

Geometry optimization settings:
Update method            Update   .... BFGS
Choice of coordinates    CoordSys .... Z-matrix Internals
Initial Hessian          InHess   .... Almoef's Model

Convergence Tolerances:
Energy Change            TolE     ....  5.0000e-06 Eh
Max. Gradient            TolMAXG  ....  3.0000e-04 Eh/bohr
RMS Gradient             TolRMSG  ....  1.0000e-04 Eh/bohr
Max. Displacement        TolMAXD  ....  4.0000e-03 bohr
RMS Displacement         TolRMSD  ....  2.0000e-03 bohr
Strict Convergence                ....  False
------------------------------------------------------------------------------
                        ORCA OPTIMIZATION COORDINATE SETUP
------------------------------------------------------------------------------

The optimization will be done in new redundant internal coordinates
Making redundant internal coordinates   ...  (new redundants) done
Evaluating the initial hessian          ...  (Almloef) done
Evaluating the coordinates              ...  done
Calculating the B-matrix                .... done
Calculating the G-matrix                .... done
Diagonalizing the G-matrix              .... done
Small eigenvalue found = 1.483e-02
Small eigenvalue found = 2.832e-02
The first mode is                       ....   49
The number of degrees of freedom        ....   60

    -----------------------------------------------------------------
                    Redundant Internal Coordinates


    -----------------------------------------------------------------
         Definition                    Initial Value    Approx d2E/dq
    -----------------------------------------------------------------
      1. B(C   1,O   0)                  1.3384         0.676451   
      2. B(C   2,C   1)                  1.4809         0.447465   
      3. B(C   3,C   2)                  1.3501         0.723544   
      4. B(C   4,C   3)                  1.5121         0.398998   
      5. B(C   5,C   4)                  1.5525         0.343889   
      6. B(N   6,C   5)                  1.4832         0.397324   
      7. B(H   7,N   6)                  1.0103         0.432199   
      8. B(H   8,N   6)                  1.0095         0.433559   
      9. B(H   9,N   6)                  1.0097         0.433180   
     10. B(C  10,C   3)                  1.4785         0.451373   
     11. B(C  11,C  10)                  1.3471         0.731564   
     12. B(C  12,C  11)                  1.4723         0.461849   
     13. B(C  12,C   1)                  1.3370         0.759139   
     14. B(O  13,C  12)                  1.5006         0.372794   
     15. B(H  14,O   0)                  0.9506         0.538305   
     16. B(H  15,C   2)                  1.0900         0.360163   
     17. B(H  16,C   4)                  1.1015         0.345210   
     18. B(H  17,C   4)                  1.1025         0.343897   
     19. B(H  18,C   5)                  1.1045         0.341408   
     20. B(H  19,C   5)                  1.1040         0.342059   
     21. B(H  20,C  10)                  1.0905         0.359486   
     22. B(H  21,C  11)                  1.0817         0.371188   
     23. A(C   1,O   0,H  14)          114.5812         0.377975   
     24. A(C   2,C   1,C  12)          119.3279         0.424542   
     25. A(O   0,C   1,C  12)          119.4220         0.454411   
     26. A(O   0,C   1,C   2)          121.2501         0.413207   
     27. A(C   1,C   2,C   3)          121.1947         0.420915   
     28. A(C   1,C   2,H  15)          119.3176         0.334140   
     29. A(C   3,C   2,H  15)          119.4875         0.362308   
     30. A(C   2,C   3,C  10)          118.6108         0.421569   
     31. A(C   2,C   3,C   4)          121.0996         0.412413   
     32. A(C   4,C   3,C  10)          120.2847         0.379653   
     33. A(C   3,C   4,H  17)          109.7179         0.325376   
     34. A(C   5,C   4,H  16)          109.2586         0.317753   
     35. A(C   3,C   4,H  16)          110.2754         0.325580   
     36. A(H  16,C   4,H  17)          107.2504         0.286847   
     37. A(C   5,C   4,H  17)          109.7050         0.317556   
     38. A(C   3,C   4,C   5)          110.5703         0.362300   
     39. A(N   6,C   5,H  18)          109.6045         0.322823   
     40. A(C   4,C   5,H  18)          108.4971         0.317180   
     41. A(C   4,C   5,N   6)          112.0883         0.359794   
     42. A(C   4,C   5,H  19)          109.0985         0.317279   
     43. A(H  18,C   5,H  19)          107.6402         0.286112   
     44. A(N   6,C   5,H  19)          109.8005         0.322924   
     45. A(C   5,N   6,H   8)          112.4429         0.332941   
     46. A(C   5,N   6,H   7)          111.5006         0.332767   
     47. A(H   8,N   6,H   9)          107.4518         0.303405   
     48. A(H   7,N   6,H   9)          106.9234         0.303253   
     49. A(C   5,N   6,H   9)          111.8521         0.332893   
     50. A(H   7,N   6,H   8)          106.3253         0.303295   
     51. A(C   3,C  10,C  11)          120.3260         0.422400   
     52. A(C  11,C  10,H  20)          119.6671         0.362874   
     53. A(C   3,C  10,H  20)          119.9990         0.334519   
     54. A(C  12,C  11,H  21)          119.2919         0.337593   
     55. A(C  10,C  11,H  21)          120.3832         0.364867   
     56. A(C  10,C  11,C  12)          120.2386         0.424135   
     57. A(C  11,C  12,O  13)          119.6818         0.374341   
     58. A(C   1,C  12,O  13)          120.0163         0.408310   
     59. A(C   1,C  12,C  11)          120.3019         0.426954   
     60. D(C   2,C   1,O   0,H  14)     -0.0122         0.034050   
     61. D(C  12,C   1,O   0,H  14)    179.9866         0.034050   
     62. D(C   3,C   2,C   1,O   0)    179.8695         0.013652   
     63. D(C   3,C   2,C   1,C  12)     -0.1293         0.013652   
     64. D(H  15,C   2,C   1,O   0)      0.0310         0.013652   
     65. D(H  15,C   2,C   1,C  12)   -179.9679         0.013652   
     66. D(C   4,C   3,C   2,C   1)   -179.0666         0.037085   
     67. D(C  10,C   3,C   2,H  15)    179.9643         0.037085   
     68. D(C  10,C   3,C   2,C   1)      0.1261         0.037085   
     69. D(C   4,C   3,C   2,H  15)      0.7717         0.037085   
     70. D(H  16,C   4,C   3,C  10)     20.9081         0.011817   
     71. D(H  16,C   4,C   3,C   2)   -159.9127         0.011817   
     72. D(H  17,C   4,C   3,C   2)    -41.9932         0.011817   
     73. D(C   5,C   4,C   3,C   2)     79.1430         0.011817   
     74. D(C   5,C   4,C   3,C  10)   -100.0362         0.011817   
     75. D(H  17,C   4,C   3,C  10)    138.8275         0.011817   
     76. D(H  19,C   5,C   4,H  17)     59.4639         0.009556   
     77. D(H  19,C   5,C   4,H  16)    176.7735         0.009556   
     78. D(H  18,C   5,C   4,H  17)    -57.5363         0.009556   
     79. D(H  18,C   5,C   4,H  16)     59.7733         0.009556   
     80. D(H  18,C   5,C   4,C   3)   -178.6802         0.009556   
     81. D(H  19,C   5,C   4,C   3)    -61.6800         0.009556   
     82. D(N   6,C   5,C   4,H  17)   -178.7070         0.009556   
     83. D(N   6,C   5,C   4,H  16)    -61.3975         0.009556   
     84. D(N   6,C   5,C   4,C   3)     60.1491         0.009556   
     85. D(H   8,N   6,C   5,H  18)    175.7850         0.014430   
     86. D(H   8,N   6,C   5,C   4)    -63.6846         0.014430   
     87. D(H   7,N   6,C   5,H  19)    -61.5709         0.014430   
     88. D(H   7,N   6,C   5,H  18)     56.4721         0.014430   
     89. D(H   8,N   6,C   5,H  19)     57.7420         0.014430   
     90. D(H   7,N   6,C   5,C   4)    177.0025         0.014430   
     91. D(H   9,N   6,C   5,H  19)    178.7555         0.014430   
     92. D(H   9,N   6,C   5,H  18)    -63.2015         0.014430   
     93. D(H   9,N   6,C   5,C   4)     57.3290         0.014430   
     94. D(H  20,C  10,C   3,C   4)      0.2201         0.013886   
     95. D(H  20,C  10,C   3,C   2)   -178.9794         0.013886   
     96. D(C  11,C  10,C   3,C   4)    179.1865         0.013886   
     97. D(C  11,C  10,C   3,C   2)     -0.0130         0.013886   
     98. D(H  21,C  11,C  10,H  20)     -4.5302         0.037988   
     99. D(H  21,C  11,C  10,C   3)    176.4999         0.037988   
    100. D(C  12,C  11,C  10,H  20)    178.8724         0.037988   
    101. D(C  12,C  11,C  10,C   3)     -0.0975         0.037988   
    102. D(O  13,C  12,C  11,H  21)      3.4697         0.014529   
    103. D(O  13,C  12,C  11,C  10)   -179.8958         0.014529   
    104. D(C   1,C  12,C  11,H  21)   -176.5394         0.014529   
    105. D(C   1,C  12,C  11,C  10)      0.0951         0.014529   
    106. D(O  13,C  12,C   1,C   2)   -179.9926         0.041196   
    107. D(O  13,C  12,C   1,O   0)      0.0085         0.041196   
    108. D(C  11,C  12,C   1,C   2)      0.0165         0.041196   
    109. D(C  11,C  12,C   1,O   0)   -179.9823         0.041196   
    -----------------------------------------------------------------

Number of atoms                         .... 22
Number of degrees of freedom            .... 109

         *************************************************************
         *                GEOMETRY OPTIMIZATION CYCLE   1            *
         *************************************************************
---------------------------------
CARTESIAN COORDINATES (ANGSTROEM)
---------------------------------
  O      2.915711   -2.145336   -0.071780
  C      2.182078   -1.035316   -0.216318
  C      0.729710   -1.105456   -0.496832
  C     -0.009761    0.014983   -0.639845
  C     -1.496476   -0.059044   -0.905511
  C     -2.271812   -0.345994    0.408601
  N     -2.054248    0.710545    1.426609
  H     -2.600459    0.540476    2.259362
  H     -1.091500    0.765704    1.725095
  H     -2.317673    1.622921    1.083567
  C      0.660670    1.326672   -0.513475
  C      1.982081    1.393560   -0.260573
  C      2.770665    0.160014   -0.105508
  O      4.241447    0.249090    0.178348
  H      2.428299   -2.956218   -0.163779
  H      0.249945   -2.080013   -0.586611
  H     -1.854382    0.888174   -1.339070
  H     -1.703849   -0.854101   -1.640670
  H     -3.348370   -0.416589    0.171998
  H     -1.952718   -1.323610    0.810152
  H      0.082070    2.246096   -0.608310
  H      2.484339    2.350932   -0.223869

----------------------------
CARTESIAN COORDINATES (A.U.)
----------------------------
  NO LB      ZA    FRAG     MASS         X           Y           Z
   0 O     8.0000    0    15.999    5.509895   -4.054098   -0.135645
   1 C     6.0000    0    12.011    4.123530   -1.956464   -0.408782
   2 C     6.0000    0    12.011    1.378952   -2.089009   -0.938876
   3 C     6.0000    0    12.011   -0.018446    0.028314   -1.209132
   4 C     6.0000    0    12.011   -2.827930   -0.111577   -1.711168
   5 C     6.0000    0    12.011   -4.293103   -0.653834    0.772144
   6 N     7.0000    0    14.007   -3.881966    1.342735    2.695900
   7 H     1.0000    0     1.008   -4.914155    1.021352    4.269575
   8 H     1.0000    0     1.008   -2.062636    1.446971    3.259957
   9 H     1.0000    0     1.008   -4.379767    3.066876    2.047645
  10 C     6.0000    0    12.011    1.248485    2.507047   -0.970327
  11 C     6.0000    0    12.011    3.745590    2.633447   -0.492412
  12 C     6.0000    0    12.011    5.235798    0.302383   -0.199381
  13 O     8.0000    0    15.999    8.015173    0.470712    0.337029
  14 H     1.0000    0     1.008    4.588820   -5.586442   -0.309497
  15 H     1.0000    0     1.008    0.472328   -3.930655   -1.108534
  16 H     1.0000    0     1.008   -3.504274    1.678406   -2.530476
  17 H     1.0000    0     1.008   -3.219808   -1.614017   -3.100417
  18 H     1.0000    0     1.008   -6.327502   -0.787239    0.325029
  19 H     1.0000    0     1.008   -3.690102   -2.501260    1.530965
  20 H     1.0000    0     1.008    0.155090    4.244506   -1.149539
  21 H     1.0000    0     1.008    4.694720    4.442618   -0.423051

--------------------------------
INTERNAL COORDINATES (ANGSTROEM)
--------------------------------
 O      0   0   0     0.000000000000     0.00000000     0.00000000
 C      1   0   0     1.338377006875     0.00000000     0.00000000
 C      2   1   0     1.480871544470   121.25010416     0.00000000
 C      3   2   1     1.350056899072   121.19472179   179.86949607
 C      4   3   2     1.512078011053   121.09957099   180.93339906
 C      5   4   3     1.552538747967   110.57031942    79.14304527
 N      6   5   4     1.483222518937   112.08826820    60.14906177
 H      7   6   5     1.010320483951   111.50064589   177.00253813
 H      7   6   5     1.009465263880   112.44288803   296.31544251
 H      7   6   5     1.009703179041   111.85207897    57.32899260
 C      4   3   2     1.478504357580   118.61080934     0.12607216
 C     11   4   3     1.347056218971   120.32595263     0.00000000
 C      2   1   3     1.336984413361   119.42202592   179.99882376
 O     13   2   1     1.500569376615   120.01627640     0.00000000
 H      1   2   3     0.950559778062   114.58122247     0.00000000
 H      3   2   1     1.089952324790   119.31762277     0.03097452
 H      5   4   3     1.101495370322   110.27538276   200.08730662
 H      5   4   3     1.102532516373   109.71790168   318.00675934
 H      6   5   4     1.104509737847   108.49705429   181.31978110
 H      6   5   4     1.103991499013   109.09847051   298.32002061
 H     11   4   3     1.090464180522   119.99895977   181.02060178
 H     12  11   4     1.081744622618   120.38317161   176.49992583

---------------------------
INTERNAL COORDINATES (A.U.)
---------------------------
 O      0   0   0     0.000000000000     0.00000000     0.00000000
 C      1   0   0     2.529166006932     0.00000000     0.00000000
 C      2   1   0     2.798441658565   121.25010416     0.00000000
 C      3   2   1     2.551237804456   121.19472179   179.86949607
 C      4   3   2     2.857413334015   121.09957099   180.93339906
 C      5   4   3     2.933873045959   110.57031942    79.14304527
 N      6   5   4     2.802884356455   112.08826820    60.14906177
 H      7   6   5     1.909229022158   111.50064589   177.00253813
 H      7   6   5     1.907612890440   112.44288803   296.31544251
 H      7   6   5     1.908062484937   111.85207897    57.32899260
 C      4   3   2     2.793968323635   118.61080934     0.12607216
 C     11   4   3     2.545567340851   120.32595263     0.00000000
 C      2   1   3     2.526534386573   119.42202592   179.99882376
 O     13   2   1     2.835665166752   120.01627640     0.00000000
 H      1   2   3     1.796297654458   114.58122247     0.00000000
 H      3   2   1     2.059711392884   119.31762277     0.03097452
 H      5   4   3     2.081524587691   110.27538276   200.08730662
 H      5   4   3     2.083484509687   109.71790168   318.00675934
 H      6   5   4     2.087220916779   108.49705429   181.31978110
 H      6   5   4     2.086241587312   109.09847051   298.32002061
 H     11   4   3     2.060678660037   119.99895977   181.02060178
 H     12  11   4     2.044201083591   120.38317161   176.49992583

---------------------
BASIS SET INFORMATION
---------------------
There are 4 groups of distinct atoms

 Group   1 Type O   : 11s6p2d1f contracted to 5s3p2d1f pattern {62111/411/11/1}
 Group   2 Type C   : 11s6p2d1f contracted to 5s3p2d1f pattern {62111/411/11/1}
 Group   3 Type N   : 11s6p2d1f contracted to 5s3p2d1f pattern {62111/411/11/1}
 Group   4 Type H   : 5s1p contracted to 3s1p pattern {311/1}

Atom   0O    basis set group =>   1
Atom   1C    basis set group =>   2
Atom   2C    basis set group =>   2
Atom   3C    basis set group =>   2
Atom   4C    basis set group =>   2
Atom   5C    basis set group =>   2
Atom   6N    basis set group =>   3
Atom   7H    basis set group =>   4
Atom   8H    basis set group =>   4
Atom   9H    basis set group =>   4
Atom  10C    basis set group =>   2
Atom  11C    basis set group =>   2
Atom  12C    basis set group =>   2
Atom  13O    basis set group =>   1
Atom  14H    basis set group =>   4
Atom  15H    basis set group =>   4
Atom  16H    basis set group =>   4
Atom  17H    basis set group =>   4
Atom  18H    basis set group =>   4
Atom  19H    basis set group =>   4
Atom  20H    basis set group =>   4
Atom  21H    basis set group =>   4
---------------------------------
AUXILIARY/J BASIS SET INFORMATION
---------------------------------
There are 4 groups of distinct atoms

 Group   1 Type O   : 12s5p4d2f1g contracted to 6s4p3d1f1g pattern {711111/2111/211/2/1}
 Group   2 Type C   : 12s5p4d2f1g contracted to 6s4p3d1f1g pattern {711111/2111/211/2/1}
 Group   3 Type N   : 12s5p4d2f1g contracted to 6s4p3d1f1g pattern {711111/2111/211/2/1}
 Group   4 Type H   : 5s2p1d contracted to 3s1p1d pattern {311/2/1}

Atom   0O    basis set group =>   1
Atom   1C    basis set group =>   2
Atom   2C    basis set group =>   2
Atom   3C    basis set group =>   2
Atom   4C    basis set group =>   2
Atom   5C    basis set group =>   2
Atom   6N    basis set group =>   3
Atom   7H    basis set group =>   4
Atom   8H    basis set group =>   4
Atom   9H    basis set group =>   4
Atom  10C    basis set group =>   2
Atom  11C    basis set group =>   2
Atom  12C    basis set group =>   2
Atom  13O    basis set group =>   1
Atom  14H    basis set group =>   4
Atom  15H    basis set group =>   4
Atom  16H    basis set group =>   4
Atom  17H    basis set group =>   4
Atom  18H    basis set group =>   4
Atom  19H    basis set group =>   4
Atom  20H    basis set group =>   4
Atom  21H    basis set group =>   4


           ************************************************************
           *        Program running with 8 parallel MPI-processes     *
           *              working on a common directory               *
           ************************************************************
------------------------------------------------------------------------------
                           ORCA GTO INTEGRAL CALCULATION
                           -- RI-GTO INTEGRALS CHOSEN --
------------------------------------------------------------------------------
------------------------------------------------------------------------------
                   ___                                                        
                  /   \      - P O W E R E D   B Y -                         
                 /     \                                                     
                 |  |  |   _    _      __       _____    __    __             
                 |  |  |  | |  | |    /  \     |  _  \  |  |  /  |          
                  \  \/   | |  | |   /    \    | | | |  |  | /  /          
                 / \  \   | |__| |  /  /\  \   | |_| |  |  |/  /          
                |  |  |   |  __  | /  /__\  \  |    /   |      \           
                |  |  |   | |  | | |   __   |  |    \   |  |\   \          
                \     /   | |  | | |  |  |  |  | |\  \  |  | \   \       
                 \___/    |_|  |_| |__|  |__|  |_| \__\ |__|  \__/        
                                                                              
                      - O R C A' S   B I G   F R I E N D -                    
                                      &                                       
                       - I N T E G R A L  F E E D E R -                       
                                                                              
 v1 FN, 2020, v2 2021                                                         
------------------------------------------------------------------------------


Reading SHARK input file M0001.SHARKINP.tmp ... ok
----------------------
SHARK INTEGRAL PACKAGE
----------------------

Number of atoms                             ...     22
Number of basis functions                   ...    407
Number of shells                            ...    165
Maximum angular momentum                    ...      3
Integral batch strategy                     ... SHARK/LIBINT Hybrid
RI-J (if used) integral strategy            ... SPLIT-RIJ (Revised 2003 algorithm where possible)
Printlevel                                  ...      1
Contraction scheme used                     ... SEGMENTED contraction
Coulomb Range Separation                    ... NOT USED
Exchange Range Separation                   ... NOT USED
Finite Nucleus Model                        ... NOT USED
Auxiliary Coulomb fitting basis             ... AVAILABLE
   # of basis functions in Aux-J            ...    660
   # of shells in Aux-J                     ...    220
   Maximum angular momentum in Aux-J        ...      4
Auxiliary J/K fitting basis                 ... NOT available
Auxiliary Correlation fitting basis         ... NOT available
Auxiliary 'external' fitting basis          ... NOT available
Integral threshold                          ...     2.500000e-11
Primitive cut-off                           ...     2.500000e-12
Primitive pair pre-selection threshold      ...     2.500000e-12

Calculating pre-screening integrals         ... done (  0.1 sec) Dimension = 165
Organizing shell pair data                  ... done (  0.1 sec)
Shell pair information
Total number of shell pairs                 ...     13695
Shell pairs after pre-screening             ...     11672
Total number of primitive shell pairs       ...     41316
Primitive shell pairs kept                  ...     25421
          la=0 lb=0:   3223 shell pairs
          la=1 lb=0:   3353 shell pairs
          la=1 lb=1:    896 shell pairs
          la=2 lb=0:   1642 shell pairs
          la=2 lb=1:    857 shell pairs
          la=2 lb=2:    221 shell pairs
          la=3 lb=0:    792 shell pairs
          la=3 lb=1:    422 shell pairs
          la=3 lb=2:    208 shell pairs
          la=3 lb=3:     58 shell pairs

Calculating one electron integrals          ... done (  0.0 sec)
Calculating RI/J V-Matrix + Cholesky decomp.... done (  0.0 sec)
Calculating Nuclear repulsion               ... done (  0.0 sec) ENN=    596.256345168416 Eh

SHARK setup successfully completed in   0.2 seconds

Maximum memory used throughout the entire GTOINT-calculation: 20.0 MB


           ************************************************************
           *        Program running with 8 parallel MPI-processes     *
           *              working on a common directory               *
           ************************************************************
-------------------------------------------------------------------------------
                                 ORCA SCF
-------------------------------------------------------------------------------

------------
SCF SETTINGS
------------
Hamiltonian:
 Density Functional     Method          .... DFT(GTOs)
 Exchange Functional    Exchange        .... PBE
   PBE kappa parameter   XKappa         ....  0.804000
   PBE mue parameter    XMuePBE         ....  0.219520
 Correlation Functional Correlation     .... PBE
   PBE beta parameter  CBetaPBE         ....  0.066725
 LDA part of GGA corr.  LDAOpt          .... PW91-LDA
 Gradients option       PostSCFGGA      .... off
   Density functional embedding theory  .... OFF
   NL short-range parameter             ....  6.400000
 RI-approximation to the Coulomb term is turned on
   Number of AuxJ basis functions       .... 660


General Settings:
 Integral files         IntName         .... M0001
 Hartree-Fock type      HFTyp           .... RHF
 Total Charge           Charge          ....    0
 Multiplicity           Mult            ....    1
 Number of Electrons    NEL             ....   82
 Basis Dimension        Dim             ....  407
 Nuclear Repulsion      ENuc            ....    596.2563451684 Eh

Convergence Acceleration:
 DIIS                   CNVDIIS         .... on
   Start iteration      DIISMaxIt       ....    12
   Startup error        DIISStart       ....  0.200000
   # of expansion vecs  DIISMaxEq       ....     5
   Bias factor          DIISBfac        ....   1.050
   Max. coefficient     DIISMaxC        ....  10.000
 Trust-Rad. Augm. Hess. CNVTRAH         .... auto
   Auto Start mean grad. ratio tolernc. ....  1.125000
   Auto Start start iteration           ....    20
   Auto Start num. interpolation iter.  ....    10
   Max. Number of Micro iterations      ....    16
   Max. Number of Macro iterations      .... Maxiter - #DIIS iter
   Number of Davidson start vectors     ....     2
   Converg. threshold I  (grad. norm)   ....   1.000e-05
   Converg. threshold II (energy diff.) ....   1.000e-08
   Grad. Scal. Fac. for Micro threshold ....   0.100
   Minimum threshold for Micro iter.    ....   0.010
   NR start threshold (gradient norm)   ....   0.001
   Initial trust radius                 ....   0.400
   Minimum AH scaling param. (alpha)    ....   1.000
   Maximum AH scaling param. (alpha)    .... 1000.000
   Orbital update algorithm             .... Taylor
   White noise on init. David. guess    .... on
   Maximum white noise                  ....   0.010
   Quad. conv. algorithm                .... NR
 SOSCF                  CNVSOSCF        .... on
   Start iteration      SOSCFMaxIt      ....   150
   Startup grad/error   SOSCFStart      ....  0.003300
 Level Shifting         CNVShift        .... on
   Level shift para.    LevelShift      ....    0.2500
   Turn off err/grad.   ShiftErr        ....    0.0010
 Zerner damping         CNVZerner       .... off
 Static damping         CNVDamp         .... on
   Fraction old density DampFac         ....    0.7000
   Max. Damping (<1)    DampMax         ....    0.9800
   Min. Damping (>=0)   DampMin         ....    0.0000
   Turn off err/grad.   DampErr         ....    0.1000
 Fernandez-Rico         CNVRico         .... off

SCF Procedure:
 Maximum # iterations   MaxIter         ....   125
 SCF integral mode      SCFMode         .... Direct
   Integral package                     .... SHARK and LIBINT hybrid scheme
 Reset frequency        DirectResetFreq ....    20
 Integral Threshold     Thresh          ....  2.500e-11 Eh
 Primitive CutOff       TCut            ....  2.500e-12 Eh

Convergence Tolerance:
 Convergence Check Mode ConvCheckMode   .... Total+1el-Energy
 Convergence forced     ConvForced      .... 0
 Energy Change          TolE            ....  1.000e-08 Eh
 1-El. energy change                    ....  1.000e-05 Eh
 Orbital Gradient       TolG            ....  1.000e-05
 Orbital Rotation angle TolX            ....  1.000e-05
 DIIS Error             TolErr          ....  5.000e-07


Diagonalization of the overlap matrix:
Smallest eigenvalue                        ... 9.954e-06
Time for diagonalization                   ...    0.019 sec
Threshold for overlap eigenvalues          ... 1.000e-08
Number of eigenvalues below threshold      ... 0
Time for construction of square roots      ...    0.017 sec
Total time needed                          ...    0.037 sec

Time for model grid setup =    0.089 sec

------------------------------
INITIAL GUESS: MODEL POTENTIAL
------------------------------
Loading Hartree-Fock densities                     ... done
Calculating cut-offs                               ... done
Initializing the effective Hamiltonian             ... done
Setting up the integral package (SHARK)            ... done
Starting the Coulomb interaction                   ... done (   0.1 sec)
Reading the grid                                   ... done
Mapping shells                                     ... done
Starting the XC term evaluation                    ... done (   0.1 sec)
  promolecular density results
     # of electrons  =     81.995362120
     EX              =    -66.971910072
     EC              =     -2.725535039
     EX+EC           =    -69.697445112
Transforming the Hamiltonian                       ... done (   0.0 sec)
Diagonalizing the Hamiltonian                      ... done (   0.0 sec)
Back transforming the eigenvectors                 ... done (   0.0 sec)
Now organizing SCF variables                       ... done
                      ------------------
                      INITIAL GUESS DONE (   0.4 sec)
                      ------------------
-------------------
DFT GRID GENERATION
-------------------

General Integration Accuracy     IntAcc      ... 4.388
Radial Grid Type                 RadialGrid  ... OptM3 with GC (2021)
Angular Grid (max. ang.)         AngularGrid ... 4 (Lebedev-302)
Angular grid pruning method      GridPruning ... 4 (adaptive)
Weight generation scheme         WeightScheme... Becke
Basis function cutoff            BFCut       ... 1.0000e-11
Integration weight cutoff        WCut        ... 1.0000e-14
Angular grids for H and He will be reduced by one unit
Partially contracted basis set               ... off
Rotationally invariant grid construction     ... off

Total number of grid points                  ...   101281
Total number of batches                      ...     1596
Average number of points per batch           ...       63
Average number of grid points per atom       ...     4604
Time for grid setup =    0.483 sec

--------------
SCF ITERATIONS
--------------
ITER       Energy         Delta-E        Max-DP      RMS-DP      [F,P]     Damp
               ***  Starting incremental Fock matrix formation  ***
  0   -515.6772501859   0.000000000000 3.04365414  0.02811976  0.3761046 0.7000
  1   -515.6691032353   0.008146950623 0.89543035  0.00803599  0.1615283 0.7000
                               ***Turning on DIIS***
  2   -515.8695741801  -0.200470944872 2.10594033  0.01870491  0.0957156 0.0000
  3   -515.8808514621  -0.011277281970 0.12368963  0.00084288  0.2703037 0.7000
  4   -515.9185965542  -0.037745092126 0.18165149  0.00119889  0.2312284 0.7000
  5   -515.9568586730  -0.038262118734 0.18761235  0.00123864  0.1894969 0.7000
  6   -515.9888468259  -0.031988152889 0.17162209  0.00115429  0.1560862 0.7000
  7   -516.0143976861  -0.025550860209 0.33803944  0.00236710  0.1312408 0.7000
  8   -516.0467388000  -0.032341113961 0.96920996  0.00686605  0.0938141 0.0000
  9   -516.0946941633  -0.047955363248 0.17355833  0.00114859  0.0284362 0.0000
 10   -516.0962121240  -0.001517960677 0.06250290  0.00060000  0.0087157 0.0000
 11   -516.0968706065  -0.000658482553 0.08333807  0.00064515  0.0135143 0.0000
 12   -516.0974504284  -0.000579821849 0.04416743  0.00044356  0.0063683 0.0000
 13   -516.0977957279  -0.000345299519 0.04382425  0.00039974  0.0046268 0.0000
                      *** Initiating the SOSCF procedure ***
                           *** Shutting down DIIS ***
                      *** Re-Reading the Fockian *** 
                      *** Removing any level shift *** 
ITER      Energy       Delta-E        Grad      Rot      Max-DP    RMS-DP
 14   -516.09801447  -0.0002187396  0.003029  0.003029  0.018278  0.000260
               *** Restarting incremental Fock matrix formation ***
 15   -516.09816188  -0.0001474081  0.002457  0.049139  0.092279  0.001085
 16   -516.09841482  -0.0002529454  0.001246  0.015820  0.127652  0.001143
 17   -516.09818187   0.0002329489  0.003087  0.010872  0.077019  0.000559
 18   -516.09837395  -0.0001920753  0.001416  0.018623  0.076652  0.000830
 19   -516.09827609   0.0000978544  0.001481  0.013547  0.067643  0.000625
 20   -516.09850431  -0.0002282212  0.000273  0.001313  0.004769  0.000060
 21   -516.09849816   0.0000061519  0.000631  0.001137  0.003555  0.000047
 22   -516.09850871  -0.0000105504  0.000147  0.000476  0.002495  0.000025
 23   -516.09850772   0.0000009970  0.000164  0.000316  0.002225  0.000023
 24   -516.09850933  -0.0000016169  0.000028  0.000120  0.000802  0.000010
 25   -516.09850922   0.0000001106  0.000060  0.000122  0.000448  0.000005
 26   -516.09850940  -0.0000001814  0.000022  0.000092  0.000505  0.000005
 27   -516.09850936   0.0000000386  0.000034  0.000057  0.000402  0.000005
 28   -516.09850941  -0.0000000477  0.000006  0.000020  0.000249  0.000003
 29   -516.09850940   0.0000000080  0.000011  0.000014  0.000065  0.000001
                  ***Gradient check signals convergence***
              ***Rediagonalizing the Fockian in SOSCF/NRSCF***

               *****************************************************
               *                     SUCCESS                       *
               *           SCF CONVERGED AFTER  30 CYCLES          *
               *****************************************************


----------------
TOTAL SCF ENERGY
----------------

Total Energy       :         -516.09850942 Eh          -14043.75441 eV

Components:
Nuclear Repulsion  :          596.25634517 Eh           16224.96001 eV
Electronic Energy  :        -1112.35485459 Eh          -30268.71443 eV
One Electron Energy:        -1884.68869872 Eh          -51284.98677 eV
Two Electron Energy:          772.33384413 Eh           21016.27235 eV

Virial components:
Potential Energy   :        -1029.86838711 Eh          -28024.14353 eV
Kinetic Energy     :          513.76987769 Eh           13980.38912 eV
Virial Ratio       :            2.00453244


DFT components:
N(Alpha)           :       41.000076051223 electrons
N(Beta)            :       41.000076051223 electrons
N(Total)           :       82.000152102445 electrons
E(X)               :      -68.199937171685 Eh       
E(C)               :       -2.730277063186 Eh       
E(XC)              :      -70.930214234871 Eh       
DFET-embed. en.    :        0.000000000000 Eh       

---------------
SCF CONVERGENCE
---------------

  Last Energy change         ...   -1.5532e-08  Tolerance :   1.0000e-08
  Last MAX-Density change    ...    7.6862e-04  Tolerance :   1.0000e-07
  Last RMS-Density change    ...    6.9453e-06  Tolerance :   5.0000e-09
  Last Orbital Gradient      ...    1.2705e-06  Tolerance :   1.0000e-05
  Last Orbital Rotation      ...    1.3229e-05  Tolerance :   1.0000e-05

             **** THE GBW FILE WAS UPDATED (M0001.gbw) ****
             **** DENSITY M0001.scfp WAS UPDATED ****
             **** ENERGY FILE WAS UPDATED (M0001.en.tmp) ****
             **** THE GBW FILE WAS UPDATED (M0001.gbw) ****
             **** DENSITY M0001.scfp WAS UPDATED ****
----------------
ORBITAL ENERGIES
----------------

  NO   OCC          E(Eh)            E(eV) 
   0   2.0000     -18.745406      -510.0884 
   1   2.0000     -18.615446      -506.5520 
   2   2.0000     -14.167738      -385.5238 
   3   2.0000      -9.996324      -272.0138 
   4   2.0000      -9.927337      -270.1366 
   5   2.0000      -9.905828      -269.5513 
   6   2.0000      -9.878384      -268.8045 
   7   2.0000      -9.872825      -268.6532 
   8   2.0000      -9.867767      -268.5156 
   9   2.0000      -9.863634      -268.4031 
  10   2.0000      -9.846922      -267.9484 
  11   2.0000      -0.999001       -27.1842 
  12   2.0000      -0.949038       -25.8246 
  13   2.0000      -0.772118       -21.0104 
  14   2.0000      -0.746185       -20.3047 
  15   2.0000      -0.713828       -19.4243 
  16   2.0000      -0.656300       -17.8588 
  17   2.0000      -0.643577       -17.5126 
  18   2.0000      -0.611830       -16.6488 
  19   2.0000      -0.601806       -16.3760 
  20   2.0000      -0.589136       -16.0312 
  21   2.0000      -0.538506       -14.6535 
  22   2.0000      -0.511721       -13.9246 
  23   2.0000      -0.491697       -13.3798 
  24   2.0000      -0.473223       -12.8770 
  25   2.0000      -0.433510       -11.7964 
  26   2.0000      -0.407607       -11.0916 
  27   2.0000      -0.400735       -10.9046 
  28   2.0000      -0.394522       -10.7355 
  29   2.0000      -0.359668        -9.7871 
  30   2.0000      -0.355212        -9.6658 
  31   2.0000      -0.334719        -9.1082 
  32   2.0000      -0.330124        -8.9831 
  33   2.0000      -0.289896        -7.8885 
  34   2.0000      -0.278404        -7.5757 
  35   2.0000      -0.271829        -7.3969 
  36   2.0000      -0.228296        -6.2122 
  37   2.0000      -0.210968        -5.7407 
  38   2.0000      -0.180597        -4.9143 
  39   2.0000      -0.103743        -2.8230 
  40   2.0000      -0.096097        -2.6149 
  41   0.0000      -0.085490        -2.3263 
  42   0.0000      -0.033602        -0.9144 
  43   0.0000      -0.023422        -0.6373 
  44   0.0000      -0.016654        -0.4532 
  45   0.0000      -0.005180        -0.1410 
  46   0.0000       0.009938         0.2704 
  47   0.0000       0.024506         0.6668 
  48   0.0000       0.031034         0.8445 
  49   0.0000       0.032097         0.8734 
  50   0.0000       0.042429         1.1545 
  51   0.0000       0.061314         1.6684 
  52   0.0000       0.064208         1.7472 
  53   0.0000       0.086196         2.3455 
  54   0.0000       0.093204         2.5362 
  55   0.0000       0.120287         3.2732 
  56   0.0000       0.121674         3.3109 
  57   0.0000       0.133582         3.6350 
  58   0.0000       0.144062         3.9201 
  59   0.0000       0.150806         4.1036 
  60   0.0000       0.155764         4.2386 
  61   0.0000       0.157642         4.2897 
  62   0.0000       0.176452         4.8015 
  63   0.0000       0.183875         5.0035 
  64   0.0000       0.213143         5.7999 
  65   0.0000       0.218868         5.9557 
  66   0.0000       0.223753         6.0886 
  67   0.0000       0.228317         6.2128 
  68   0.0000       0.236482         6.4350 
  69   0.0000       0.250101         6.8056 
  70   0.0000       0.259979         7.0744 
  71   0.0000       0.264456         7.1962 
  72   0.0000       0.276807         7.5323 
  73   0.0000       0.288217         7.8428 
  74   0.0000       0.296734         8.0745 
  75   0.0000       0.302865         8.2414 
  76   0.0000       0.316303         8.6071 
  77   0.0000       0.321972         8.7613 
  78   0.0000       0.329487         8.9658 
  79   0.0000       0.331665         9.0251 
  80   0.0000       0.341470         9.2919 
  81   0.0000       0.343177         9.3383 
  82   0.0000       0.350077         9.5261 
  83   0.0000       0.356525         9.7015 
  84   0.0000       0.362332         9.8596 
  85   0.0000       0.369236        10.0474 
  86   0.0000       0.377078        10.2608 
  87   0.0000       0.377482        10.2718 
  88   0.0000       0.389490        10.5986 
  89   0.0000       0.395316        10.7571 
  90   0.0000       0.402941        10.9646 
  91   0.0000       0.409093        11.1320 
  92   0.0000       0.416380        11.3303 
  93   0.0000       0.422296        11.4913 
  94   0.0000       0.430216        11.7068 
  95   0.0000       0.437580        11.9072 
  96   0.0000       0.445331        12.1181 
  97   0.0000       0.463387        12.6094 
  98   0.0000       0.481950        13.1145 
  99   0.0000       0.499582        13.5943 
 100   0.0000       0.503078        13.6894 
 101   0.0000       0.511325        13.9139 
 102   0.0000       0.531882        14.4732 
 103   0.0000       0.537954        14.6385 
 104   0.0000       0.554835        15.0978 
 105   0.0000       0.559525        15.2255 
 106   0.0000       0.578785        15.7495 
 107   0.0000       0.591616        16.0987 
 108   0.0000       0.594991        16.1905 
 109   0.0000       0.609673        16.5900 
 110   0.0000       0.618296        16.8247 
 111   0.0000       0.630435        17.1550 
 112   0.0000       0.641612        17.4592 
 113   0.0000       0.654467        17.8090 
 114   0.0000       0.667700        18.1690 
 115   0.0000       0.679650        18.4942 
 116   0.0000       0.693985        18.8843 
 117   0.0000       0.710749        19.3405 
 118   0.0000       0.726753        19.7760 
 119   0.0000       0.729849        19.8602 
 120   0.0000       0.738815        20.1042 
 121   0.0000       0.763830        20.7849 
 122   0.0000       0.774875        21.0854 
 123   0.0000       0.792593        21.5676 
 124   0.0000       0.805715        21.9246 
 125   0.0000       0.816555        22.2196 
 126   0.0000       0.824152        22.4263 
 127   0.0000       0.834983        22.7210 
 128   0.0000       0.838738        22.8232 
 129   0.0000       0.858949        23.3732 
 130   0.0000       0.867719        23.6118 
 131   0.0000       0.905214        24.6321 
 132   0.0000       0.913876        24.8678 
 133   0.0000       0.930364        25.3165 
 134   0.0000       0.953016        25.9329 
 135   0.0000       0.958297        26.0766 
 136   0.0000       0.996502        27.1162 
 137   0.0000       1.001213        27.2444 
 138   0.0000       1.006835        27.3974 
 139   0.0000       1.037413        28.2294 
 140   0.0000       1.044021        28.4093 
 141   0.0000       1.057458        28.7749 
 142   0.0000       1.065217        28.9860 
 143   0.0000       1.084625        29.5142 
 144   0.0000       1.087027        29.5795 
 145   0.0000       1.119363        30.4594 
 146   0.0000       1.129046        30.7229 
 147   0.0000       1.135661        30.9029 
 148   0.0000       1.164162        31.6785 
 149   0.0000       1.166961        31.7546 
 150   0.0000       1.190204        32.3871 
 151   0.0000       1.200149        32.6577 
 152   0.0000       1.225886        33.3581 
 153   0.0000       1.232639        33.5418 
 154   0.0000       1.244744        33.8712 
 155   0.0000       1.250044        34.0154 
 156   0.0000       1.268595        34.5202 
 157   0.0000       1.276666        34.7399 
 158   0.0000       1.305063        35.5126 
 159   0.0000       1.316626        35.8272 
 160   0.0000       1.350418        36.7468 
 161   0.0000       1.363589        37.1052 
 162   0.0000       1.383766        37.6542 
 163   0.0000       1.394363        37.9426 
 164   0.0000       1.421348        38.6768 
 165   0.0000       1.425145        38.7802 
 166   0.0000       1.433927        39.0191 
 167   0.0000       1.447625        39.3919 
 168   0.0000       1.461765        39.7767 
 169   0.0000       1.477140        40.1950 
 170   0.0000       1.486977        40.4627 
 171   0.0000       1.506299        40.9885 
 172   0.0000       1.517719        41.2992 
 173   0.0000       1.518508        41.3207 
 174   0.0000       1.550929        42.2029 
 175   0.0000       1.565345        42.5952 
 176   0.0000       1.572281        42.7840 
 177   0.0000       1.585218        43.1360 
 178   0.0000       1.594787        43.3964 
 179   0.0000       1.600019        43.5387 
 180   0.0000       1.620139        44.0862 
 181   0.0000       1.626814        44.2679 
 182   0.0000       1.638785        44.5936 
 183   0.0000       1.668901        45.4131 
 184   0.0000       1.676846        45.6293 
 185   0.0000       1.681660        45.7603 
 186   0.0000       1.712750        46.6063 
 187   0.0000       1.729654        47.0663 
 188   0.0000       1.735252        47.2186 
 189   0.0000       1.748703        47.5846 
 190   0.0000       1.759651        47.8826 
 191   0.0000       1.775460        48.3127 
 192   0.0000       1.791074        48.7376 
 193   0.0000       1.798033        48.9270 
 194   0.0000       1.808300        49.2063 
 195   0.0000       1.825481        49.6739 
 196   0.0000       1.847930        50.2847 
 197   0.0000       1.855488        50.4904 
 198   0.0000       1.860497        50.6267 
 199   0.0000       1.889068        51.4042 
 200   0.0000       1.907519        51.9062 
 201   0.0000       1.917293        52.1722 
 202   0.0000       1.945864        52.9497 
 203   0.0000       1.965048        53.4717 
 204   0.0000       1.980861        53.9020 
 205   0.0000       1.991030        54.1787 
 206   0.0000       2.026972        55.1567 
 207   0.0000       2.040306        55.5196 
 208   0.0000       2.059678        56.0467 
 209   0.0000       2.079011        56.5728 
 210   0.0000       2.093895        56.9778 
 211   0.0000       2.105056        57.2815 
 212   0.0000       2.117704        57.6257 
 213   0.0000       2.124730        57.8168 
 214   0.0000       2.145655        58.3862 
 215   0.0000       2.152789        58.5804 
 216   0.0000       2.186787        59.5055 
 217   0.0000       2.200839        59.8879 
 218   0.0000       2.222762        60.4844 
 219   0.0000       2.236381        60.8550 
 220   0.0000       2.251891        61.2771 
 221   0.0000       2.277444        61.9724 
 222   0.0000       2.296029        62.4781 
 223   0.0000       2.321599        63.1739 
 224   0.0000       2.328966        63.3744 
 225   0.0000       2.364790        64.3492 
 226   0.0000       2.377539        64.6961 
 227   0.0000       2.386789        64.9478 
 228   0.0000       2.393352        65.1264 
 229   0.0000       2.415141        65.7193 
 230   0.0000       2.431747        66.1712 
 231   0.0000       2.437496        66.3276 
 232   0.0000       2.453327        66.7584 
 233   0.0000       2.477582        67.4184 
 234   0.0000       2.486794        67.6691 
 235   0.0000       2.496695        67.9385 
 236   0.0000       2.505395        68.1753 
 237   0.0000       2.534255        68.9606 
 238   0.0000       2.540511        69.1308 
 239   0.0000       2.555371        69.5352 
 240   0.0000       2.566070        69.8263 
 241   0.0000       2.591593        70.5208 
 242   0.0000       2.596665        70.6588 
 243   0.0000       2.600552        70.7646 
 244   0.0000       2.611355        71.0586 
 245   0.0000       2.623332        71.3845 
 246   0.0000       2.643080        71.9219 
 247   0.0000       2.664706        72.5103 
 248   0.0000       2.669438        72.6391 
 249   0.0000       2.690422        73.2101 
 250   0.0000       2.723888        74.1208 
 251   0.0000       2.736647        74.4679 
 252   0.0000       2.742906        74.6383 
 253   0.0000       2.752793        74.9073 
 254   0.0000       2.778043        75.5944 
 255   0.0000       2.782963        75.7283 
 256   0.0000       2.794429        76.0403 
 257   0.0000       2.812413        76.5297 
 258   0.0000       2.826476        76.9123 
 259   0.0000       2.840970        77.3067 
 260   0.0000       2.846810        77.4656 
 261   0.0000       2.863002        77.9062 
 262   0.0000       2.889683        78.6323 
 263   0.0000       2.898066        78.8604 
 264   0.0000       2.900489        78.9263 
 265   0.0000       2.913800        79.2885 
 266   0.0000       2.933740        79.8311 
 267   0.0000       2.955691        80.4284 
 268   0.0000       2.963694        80.6462 
 269   0.0000       2.982458        81.1568 
 270   0.0000       3.001454        81.6737 
 271   0.0000       3.021175        82.2103 
 272   0.0000       3.034523        82.5736 
 273   0.0000       3.040085        82.7249 
 274   0.0000       3.046776        82.9070 
 275   0.0000       3.054542        83.1183 
 276   0.0000       3.075727        83.6948 
 277   0.0000       3.101545        84.3973 
 278   0.0000       3.105340        84.5006 
 279   0.0000       3.125056        85.0371 
 280   0.0000       3.134910        85.3052 
 281   0.0000       3.141302        85.4792 
 282   0.0000       3.153859        85.8209 
 283   0.0000       3.155377        85.8622 
 284   0.0000       3.188729        86.7697 
 285   0.0000       3.194800        86.9349 
 286   0.0000       3.214116        87.4605 
 287   0.0000       3.235721        88.0484 
 288   0.0000       3.240508        88.1787 
 289   0.0000       3.247129        88.3589 
 290   0.0000       3.264574        88.8336 
 291   0.0000       3.269391        88.9647 
 292   0.0000       3.302726        89.8718 
 293   0.0000       3.307463        90.0006 
 294   0.0000       3.316896        90.2573 
 295   0.0000       3.336197        90.7825 
 296   0.0000       3.349714        91.1504 
 297   0.0000       3.363095        91.5145 
 298   0.0000       3.398067        92.4661 
 299   0.0000       3.401548        92.5608 
 300   0.0000       3.409700        92.7827 
 301   0.0000       3.420857        93.0862 
 302   0.0000       3.443837        93.7116 
 303   0.0000       3.449058        93.8536 
 304   0.0000       3.462734        94.2258 
 305   0.0000       3.471193        94.4560 
 306   0.0000       3.498315        95.1940 
 307   0.0000       3.516022        95.6758 
 308   0.0000       3.562280        96.9346 
 309   0.0000       3.575200        97.2861 
 310   0.0000       3.601873        98.0119 
 311   0.0000       3.618207        98.4564 
 312   0.0000       3.623646        98.6044 
 313   0.0000       3.667756        99.8047 
 314   0.0000       3.692804       100.4863 
 315   0.0000       3.711444       100.9935 
 316   0.0000       3.735269       101.6418 
 317   0.0000       3.751798       102.0916 
 318   0.0000       3.782801       102.9352 
 319   0.0000       3.792138       103.1893 
 320   0.0000       3.815401       103.8223 
 321   0.0000       3.842836       104.5689 
 322   0.0000       3.869804       105.3027 
 323   0.0000       3.899913       106.1220 
 324   0.0000       3.933284       107.0301 
 325   0.0000       3.954429       107.6055 
 326   0.0000       3.960839       107.7799 
 327   0.0000       4.011174       109.1496 
 328   0.0000       4.028886       109.6316 
 329   0.0000       4.046140       110.1011 
 330   0.0000       4.054736       110.3350 
 331   0.0000       4.104706       111.6947 
 332   0.0000       4.123538       112.2072 
 333   0.0000       4.145303       112.7994 
 334   0.0000       4.159702       113.1913 
 335   0.0000       4.185718       113.8992 
 336   0.0000       4.217066       114.7522 
 337   0.0000       4.224627       114.9579 
 338   0.0000       4.239846       115.3721 
 339   0.0000       4.282478       116.5322 
 340   0.0000       4.295360       116.8827 
 341   0.0000       4.308226       117.2328 
 342   0.0000       4.359133       118.6180 
 343   0.0000       4.390531       119.4724 
 344   0.0000       4.463565       121.4598 
 345   0.0000       4.478538       121.8672 
 346   0.0000       4.502756       122.5262 
 347   0.0000       4.541674       123.5852 
 348   0.0000       4.559972       124.0832 
 349   0.0000       4.582373       124.6927 
 350   0.0000       4.611937       125.4972 
 351   0.0000       4.681606       127.3930 
 352   0.0000       4.702979       127.9746 
 353   0.0000       4.706612       128.0734 
 354   0.0000       4.726399       128.6118 
 355   0.0000       4.747914       129.1973 
 356   0.0000       4.764943       129.6607 
 357   0.0000       4.808771       130.8533 
 358   0.0000       4.848727       131.9406 
 359   0.0000       4.869196       132.4976 
 360   0.0000       4.926997       134.0704 
 361   0.0000       4.953633       134.7952 
 362   0.0000       4.980468       135.5254 
 363   0.0000       5.006906       136.2448 
 364   0.0000       5.025924       136.7624 
 365   0.0000       5.160886       140.4348 
 366   0.0000       5.163166       140.4969 
 367   0.0000       5.192018       141.2820 
 368   0.0000       5.221097       142.0733 
 369   0.0000       5.232044       142.3712 
 370   0.0000       5.265516       143.2820 
 371   0.0000       5.278652       143.6394 
 372   0.0000       5.296623       144.1284 
 373   0.0000       5.307244       144.4174 
 374   0.0000       5.349702       145.5728 
 375   0.0000       5.454877       148.4347 
 376   0.0000       5.498941       149.6338 
 377   0.0000       5.554235       151.1384 
 378   0.0000       5.573519       151.6632 
 379   0.0000       5.629560       153.1881 
 380   0.0000       5.792224       157.6144 
 381   0.0000       5.850463       159.1992 
 382   0.0000       5.918628       161.0541 
 383   0.0000       6.081996       165.4995 
 384   0.0000       6.290972       171.1861 
 385   0.0000       6.336329       172.4203 
 386   0.0000       6.353023       172.8746 
 387   0.0000       6.388398       173.8371 
 388   0.0000       6.478157       176.2796 
 389   0.0000       6.592744       179.3977 
 390   0.0000       6.690359       182.0539 
 391   0.0000       6.695981       182.2069 
 392   0.0000       6.851061       186.4269 
 393   0.0000       6.947797       189.0592 
 394   0.0000       6.992390       190.2726 
 395   0.0000       7.246485       197.1869 
 396   0.0000      21.864380       594.9600 
 397   0.0000      22.024210       599.3092 
 398   0.0000      22.213203       604.4520 
 399   0.0000      22.305169       606.9545 
 400   0.0000      22.361905       608.4984 
 401   0.0000      22.588513       614.6647 
 402   0.0000      22.801906       620.4714 
 403   0.0000      23.138668       629.6352 
 404   0.0000      31.478059       856.5615 
 405   0.0000      43.459551      1182.5945 
 406   0.0000      43.690805      1188.8873 

                    ********************************
                    * MULLIKEN POPULATION ANALYSIS *
                    ********************************

-----------------------
MULLIKEN ATOMIC CHARGES
-----------------------
   0 O :   -0.291041
   1 C :    0.207279
   2 C :   -0.325809
   3 C :    0.158453
   4 C :   -0.288637
   5 C :   -0.128095
   6 N :   -0.159109
   7 H :    0.208507
   8 H :    0.282462
   9 H :    0.216971
  10 C :   -0.272765
  11 C :   -0.160809
  12 C :    0.068450
  13 O :   -0.517450
  14 H :    0.285445
  15 H :    0.058198
  16 H :    0.134143
  17 H :    0.132013
  18 H :    0.112483
  19 H :    0.155186
  20 H :    0.042603
  21 H :    0.081523
Sum of atomic charges:    0.0000000

--------------------------------
MULLIKEN REDUCED ORBITAL CHARGES
--------------------------------
  0 O s       :     3.732613  s :     3.732613
      pz      :     1.776948  p :     4.523905
      px      :     1.560538
      py      :     1.186419
      dz2     :     0.004287  d :     0.032696
      dxz     :     0.004754
      dyz     :     0.003943
      dx2y2   :     0.005852
      dxy     :     0.013861
      f0      :     0.000254  f :     0.001827
      f+1     :     0.000176
      f-1     :     0.000424
      f+2     :     0.000073
      f-2     :     0.000151
      f+3     :     0.000525
      f-3     :     0.000224
  1 C s       :     2.972673  s :     2.972673
      pz      :     0.958563  p :     2.634259
      px      :     0.906586
      py      :     0.769111
      dz2     :     0.008884  d :     0.170852
      dxz     :     0.024620
      dyz     :     0.043089
      dx2y2   :     0.046372
      dxy     :     0.047887
      f0      :     0.002035  f :     0.014937
      f+1     :     0.001099
      f-1     :     0.001060
      f+2     :     0.001054
      f-2     :     0.002486
      f+3     :     0.001881
      f-3     :     0.005322
  2 C s       :     3.254090  s :     3.254090
      pz      :     1.091403  p :     2.985893
      px      :     0.964928
      py      :     0.929563
      dz2     :     0.008685  d :     0.079233
      dxz     :     0.020238
      dyz     :     0.007951
      dx2y2   :     0.023822
      dxy     :     0.018538
      f0      :     0.001194  f :     0.006593
      f+1     :     0.000763
      f-1     :     0.000522
      f+2     :     0.000673
      f-2     :     0.000711
      f+3     :     0.000928
      f-3     :     0.001802
  3 C s       :     3.157905  s :     3.157905
      pz      :     0.992607  p :     2.545317
      px      :     0.765780
      py      :     0.786930
      dz2     :     0.006741  d :     0.129206
      dxz     :     0.019363
      dyz     :     0.030427
      dx2y2   :     0.040450
      dxy     :     0.032226
      f0      :     0.001350  f :     0.009118
      f+1     :     0.000807
      f-1     :     0.000564
      f+2     :     0.000762
      f-2     :     0.001366
      f+3     :     0.001161
      f-3     :     0.003108
  4 C s       :     3.219849  s :     3.219849
      pz      :     0.921991  p :     2.970567
      px      :     0.943220
      py      :     1.105355
      dz2     :     0.011342  d :     0.092894
      dxz     :     0.031454
      dyz     :     0.015623
      dx2y2   :     0.014783
      dxy     :     0.019692
      f0      :     0.000890  f :     0.005328
      f+1     :     0.000921
      f-1     :     0.000543
      f+2     :     0.001291
      f-2     :     0.000312
      f+3     :     0.000503
      f-3     :     0.000866
  5 C s       :     3.156426  s :     3.156426
      pz      :     0.902196  p :     2.861838
      px      :     1.071291
      py      :     0.888351
      dz2     :     0.024304  d :     0.102591
      dxz     :     0.012472
      dyz     :     0.030214
      dx2y2   :     0.028508
      dxy     :     0.007093
      f0      :     0.001293  f :     0.007240
      f+1     :     0.000558
      f-1     :     0.001497
      f+2     :     0.001621
      f-2     :     0.001290
      f+3     :     0.000592
      f-3     :     0.000389
  6 N s       :     3.347932  s :     3.347932
      pz      :     1.236120  p :     3.763971
      px      :     1.286538
      py      :     1.241313
      dz2     :     0.013117  d :     0.045313
      dxz     :     0.011470
      dyz     :     0.004112
      dx2y2   :     0.010842
      dxy     :     0.005773
      f0      :     0.000198  f :     0.001893
      f+1     :     0.000199
      f-1     :     0.000331
      f+2     :     0.000545
      f-2     :     0.000255
      f+3     :     0.000285
      f-3     :     0.000080
  7 H s       :     0.756473  s :     0.756473
      pz      :     0.016620  p :     0.035021
      px      :     0.011206
      py      :     0.007194
  8 H s       :     0.682110  s :     0.682110
      pz      :     0.007685  p :     0.035428
      px      :     0.021276
      py      :     0.006467
  9 H s       :     0.747408  s :     0.747408
      pz      :     0.008485  p :     0.035621
      px      :     0.007752
      py      :     0.019384
 10 C s       :     3.266821  s :     3.266821
      pz      :     1.104691  p :     2.909965
      px      :     0.963999
      py      :     0.841275
      dz2     :     0.006747  d :     0.089502
      dxz     :     0.019795
      dyz     :     0.010480
      dx2y2   :     0.015259
      dxy     :     0.037221
      f0      :     0.001107  f :     0.006478
      f+1     :     0.000728
      f-1     :     0.000619
      f+2     :     0.000799
      f-2     :     0.000439
      f+3     :     0.000844
      f-3     :     0.001941
 11 C s       :     3.236973  s :     3.236973
      pz      :     0.983775  p :     2.836131
      px      :     0.922988
      py      :     0.929369
      dz2     :     0.005248  d :     0.081083
      dxz     :     0.018424
      dyz     :     0.008874
      dx2y2   :     0.017142
      dxy     :     0.031395
      f0      :     0.001174  f :     0.006623
      f+1     :     0.000808
      f-1     :     0.000607
      f+2     :     0.000752
      f-2     :     0.000518
      f+3     :     0.000913
      f-3     :     0.001851
 12 C s       :     3.145709  s :     3.145709
      pz      :     0.924245  p :     2.610123
      px      :     0.826323
      py      :     0.859555
      dz2     :     0.010375  d :     0.163949
      dxz     :     0.039370
      dyz     :     0.019225
      dx2y2   :     0.029399
      dxy     :     0.065579
      f0      :     0.001635  f :     0.011770
      f+1     :     0.001092
      f-1     :     0.000609
      f+2     :     0.001593
      f-2     :     0.001074
      f+3     :     0.001608
      f-3     :     0.004160
 13 O s       :     3.864992  s :     3.864992
      pz      :     1.531798  p :     4.633451
      px      :     1.239069
      py      :     1.862585
      dz2     :     0.002481  d :     0.018089
      dxz     :     0.004901
      dyz     :     0.000143
      dx2y2   :     0.007474
[...]
 197   0.0000       2.905129        79.0526 
 198   0.0000       2.999499        81.6205 
 199   0.0000       3.008609        81.8684 
 200   0.0000       3.020326        82.1873 
 201   0.0000       3.063875        83.3723 
 202   0.0000       3.128013        85.1176 
 203   0.0000       3.146088        85.6094 
 204   0.0000       3.235112        88.0319 
 205   0.0000       3.270289        88.9891 
 206   0.0000       3.369231        91.6814 
 207   0.0000       3.644555        99.1734 
 208   0.0000       3.766841       102.5010 

                    ********************************
                    * MULLIKEN POPULATION ANALYSIS *
                    ********************************

-----------------------
MULLIKEN ATOMIC CHARGES
-----------------------
   0 O :   -0.151904
   1 C :    0.081708
   2 C :   -0.132504
   3 C :   -0.075830
   4 C :    0.033521
   5 C :    0.009052
   6 N :    0.121345
   7 H :    0.135943
   8 H :    0.169785
   9 H :    0.138962
  10 C :   -0.015231
  11 C :   -0.026230
  12 C :    0.075338
  13 O :   -0.493921
  14 H :    0.134419
  15 H :   -0.079377
  16 H :    0.017497
  17 H :    0.044806
  18 H :    0.036933
  19 H :    0.071137
  20 H :   -0.062376
  21 H :   -0.033074
Sum of atomic charges:    0.0000000

--------------------------------
MULLIKEN REDUCED ORBITAL CHARGES
--------------------------------
  0 O s       :     3.617401  s :     3.617401
      pz      :     1.772181  p :     4.522053
      px      :     1.212620
      py      :     1.537252
      dz2     :     0.001724  d :     0.012450
      dxz     :     0.000912
      dyz     :     0.002437
      dx2y2   :     0.004370
      dxy     :     0.003008
  1 C s       :     2.967182  s :     2.967182
      pz      :     1.033302  p :     2.877547
      px      :     0.925703
      py      :     0.918542
      dz2     :     0.005763  d :     0.073564
      dxz     :     0.008932
      dyz     :     0.015124
      dx2y2   :     0.021764
      dxy     :     0.021980
  2 C s       :     3.354474  s :     3.354474
      pz      :     1.087343  p :     2.745708
      px      :     0.953328
      py      :     0.705036
      dz2     :     0.002978  d :     0.032322
      dxz     :     0.006591
      dyz     :     0.003937
      dx2y2   :     0.010098
      dxy     :     0.008717
  3 C s       :     3.055486  s :     3.055486
      pz      :     1.113573  p :     2.979414
      px      :     0.901136
      py      :     0.964705
      dz2     :     0.003047  d :     0.040930
      dxz     :     0.005034
      dyz     :     0.008346
      dx2y2   :     0.012867
      dxy     :     0.011635
  4 C s       :     3.003436  s :     3.003436
      pz      :     0.906584  p :     2.929967
      px      :     1.035972
      py      :     0.987411
      dz2     :     0.007938  d :     0.033076
      dxz     :     0.008863
      dyz     :     0.004062
      dx2y2   :     0.005672
      dxy     :     0.006541
  5 C s       :     3.006862  s :     3.006862
      pz      :     1.007591  p :     2.941623
      px      :     0.988993
      py      :     0.945038
      dz2     :     0.007612  d :     0.042463
      dxz     :     0.008393
      dyz     :     0.012096
      dx2y2   :     0.008589
      dxy     :     0.005774
  6 N s       :     3.243202  s :     3.243202
      pz      :     1.189637  p :     3.617456
      px      :     1.221182
      py      :     1.206638
      dz2     :     0.006709  d :     0.017996
      dxz     :     0.001547
      dyz     :     0.001607
      dx2y2   :     0.006365
      dxy     :     0.001769
  7 H s       :     0.818107  s :     0.818107
      pz      :     0.025483  p :     0.045949
      px      :     0.010906
      py      :     0.009560
  8 H s       :     0.783266  s :     0.783266
      pz      :     0.009434  p :     0.046949
      px      :     0.028974
      py      :     0.008540
  9 H s       :     0.815312  s :     0.815312
      pz      :     0.010418  p :     0.045726
      px      :     0.010668
      py      :     0.024640
 10 C s       :     3.189466  s :     3.189466
      pz      :     1.073430  p :     2.792548
      px      :     0.901070
      py      :     0.818048
      dz2     :     0.002798  d :     0.033217
      dxz     :     0.006127
      dyz     :     0.003453
      dx2y2   :     0.008651
      dxy     :     0.012187
 11 C s       :     3.287705  s :     3.287705
      pz      :     0.984696  p :     2.706081
      px      :     0.850869
      py      :     0.870516
      dz2     :     0.002784  d :     0.032444
      dxz     :     0.006781
      dyz     :     0.002505
      dx2y2   :     0.009937
      dxy     :     0.010436
 12 C s       :     3.078080  s :     3.078080
      pz      :     0.985404  p :     2.788313
      px      :     0.825156
      py      :     0.977753
      dz2     :     0.004568  d :     0.058269
      dxz     :     0.011310
      dyz     :     0.006151
      dx2y2   :     0.014540
      dxy     :     0.021700
 13 O s       :     3.875161  s :     3.875161
      pz      :     1.554580  p :     4.611614
      px      :     1.254564
      py      :     1.802471
      dz2     :     0.000987  d :     0.007145
      dxz     :     0.001900
      dyz     :     0.000104
      dx2y2   :     0.002814
      dxy     :     0.001340
 14 H s       :     0.794872  s :     0.794872
      pz      :     0.018759  p :     0.070708
      px      :     0.037209
      py      :     0.014740
 15 H s       :     1.056227  s :     1.056227
      pz      :     0.005937  p :     0.023150
      px      :     0.004883
      py      :     0.012330
 16 H s       :     0.960166  s :     0.960166
      pz      :     0.005350  p :     0.022337
      px      :     0.005317
      py      :     0.011669
 17 H s       :     0.932593  s :     0.932593
      pz      :     0.007268  p :     0.022601
      px      :     0.006380
      py      :     0.008953
 18 H s       :     0.941462  s :     0.941462
      pz      :     0.003966  p :     0.021605
      px      :     0.013942
      py      :     0.003697
 19 H s       :     0.907115  s :     0.907115
      pz      :     0.003675  p :     0.021748
      px      :     0.005204
      py      :     0.012870
 20 H s       :     1.039143  s :     1.039143
      pz      :     0.006054  p :     0.023232
      px      :     0.007040
      py      :     0.010139
 21 H s       :     1.010951  s :     1.010951
      pz      :     0.004760  p :     0.022122
      px      :     0.006123
      py      :     0.011240


                     *******************************
                     * LOEWDIN POPULATION ANALYSIS *
                     *******************************

----------------------
LOEWDIN ATOMIC CHARGES
----------------------
   0 O :   -0.030245
   1 C :   -0.020135
   2 C :   -0.105482
   3 C :   -0.123850
   4 C :   -0.033856
   5 C :    0.023084
   6 N :    0.315053
   7 H :    0.099360
   8 H :    0.116219
   9 H :    0.102432
  10 C :   -0.089967
  11 C :   -0.043942
  12 C :    0.000738
  13 O :   -0.454154
  14 H :    0.058080
  15 H :    0.003770
  16 H :    0.027447
  17 H :    0.047679
  18 H :    0.025163
  19 H :    0.045581
  20 H :    0.007013
  21 H :    0.030014

-------------------------------
LOEWDIN REDUCED ORBITAL CHARGES
-------------------------------
  0 O s       :     3.378457  s :     3.378457
      pz      :     1.742280  p :     4.625331
      px      :     1.322972
      py      :     1.560079
      dz2     :     0.003395  d :     0.026456
      dxz     :     0.002066
      dyz     :     0.003513
      dx2y2   :     0.010577
      dxy     :     0.006905
  1 C s       :     2.840585  s :     2.840585
      pz      :     1.019959  p :     3.003751
      px      :     0.998759
      py      :     0.985033
      dz2     :     0.012953  d :     0.175799
      dxz     :     0.018618
      dyz     :     0.031594
      dx2y2   :     0.057727
      dxy     :     0.054907
  2 C s       :     2.865475  s :     2.865475
      pz      :     1.071146  p :     3.148222
      px      :     1.038316
      py      :     1.038760
      dz2     :     0.007293  d :     0.091785
      dxz     :     0.015155
      dyz     :     0.009006
      dx2y2   :     0.032831
      dxy     :     0.027499
  3 C s       :     2.848433  s :     2.848433
      pz      :     1.077514  p :     3.167120
      px      :     1.003728
      py      :     1.085878
      dz2     :     0.007324  d :     0.108298
      dxz     :     0.010755
      dyz     :     0.018646
      dx2y2   :     0.038735
      dxy     :     0.032836
  4 C s       :     2.844324  s :     2.844324
      pz      :     0.975313  p :     3.100676
      px      :     1.062316
      py      :     1.063048
      dz2     :     0.024763  d :     0.088856
      dxz     :     0.020311
      dyz     :     0.011088
      dx2y2   :     0.016402
      dxy     :     0.016292
  5 C s       :     2.866502  s :     2.866502
      pz      :     1.013967  p :     3.010236
      px      :     1.026154
      py      :     0.970115
      dz2     :     0.020206  d :     0.100178
      dxz     :     0.017704
      dyz     :     0.026335
      dx2y2   :     0.022323
      dxy     :     0.013611
  6 N s       :     2.993918  s :     2.993918
      pz      :     1.203848  p :     3.641871
      px      :     1.225198
      py      :     1.212826
      dz2     :     0.017424  d :     0.049158
      dxz     :     0.004294
      dyz     :     0.005698
      dx2y2   :     0.016631
      dxy     :     0.005111
  7 H s       :     0.781970  s :     0.781970
      pz      :     0.071924  p :     0.118670
      px      :     0.024666
      py      :     0.022080
  8 H s       :     0.761840  s :     0.761840
      pz      :     0.021477  p :     0.121941
      px      :     0.079940
      py      :     0.020523
  9 H s       :     0.779022  s :     0.779022
      pz      :     0.023564  p :     0.118547
      px      :     0.024474
      py      :     0.070509
 10 C s       :     2.860424  s :     2.860424
      pz      :     1.058185  p :     3.137479
      px      :     1.076441
      py      :     1.002854
      dz2     :     0.006870  d :     0.092064
      dxz     :     0.013949
      dyz     :     0.007778
      dx2y2   :     0.026076
      dxy     :     0.037392
 11 C s       :     2.877261  s :     2.877261
      pz      :     0.975018  p :     3.077310
      px      :     1.069439
      py      :     1.032852
      dz2     :     0.007338  d :     0.089372
      dxz     :     0.015491
      dyz     :     0.005001
      dx2y2   :     0.028943
      dxy     :     0.032598
 12 C s       :     2.885806  s :     2.885806
      pz      :     0.976686  p :     2.973037
      px      :     0.931363
      py      :     1.064988
      dz2     :     0.010409  d :     0.140419
      dxz     :     0.021214
      dyz     :     0.013502
      dx2y2   :     0.038498
      dxy     :     0.056796
 13 O s       :     3.731683  s :     3.731683
      pz      :     1.571307  p :     4.710601
      px      :     1.317302
      py      :     1.821992
      dz2     :     0.001758  d :     0.011870
      dxz     :     0.002807
      dyz     :     0.000133
      dx2y2   :     0.005300
      dxy     :     0.001873
 14 H s       :     0.752421  s :     0.752421
      pz      :     0.052640  p :     0.189498
      px      :     0.096885
      py      :     0.039973
 15 H s       :     0.924958  s :     0.924958
      pz      :     0.018220  p :     0.071273
      px      :     0.016464
      py      :     0.036588
 16 H s       :     0.905313  s :     0.905313
      pz      :     0.014744  p :     0.067240
      px      :     0.017153
      py      :     0.035343
 17 H s       :     0.885185  s :     0.885185
      pz      :     0.020863  p :     0.067136
      px      :     0.020332
      py      :     0.025941
 18 H s       :     0.904029  s :     0.904029
      pz      :     0.014967  p :     0.070808
      px      :     0.045109
      py      :     0.010732
 19 H s       :     0.885186  s :     0.885186
      pz      :     0.014483  p :     0.069233
      px      :     0.014777
      py      :     0.039972
 20 H s       :     0.923322  s :     0.923322
      pz      :     0.017598  p :     0.069666
      px      :     0.020647
      py      :     0.031421
 21 H s       :     0.903391  s :     0.903391
      pz      :     0.014246  p :     0.066595
      px      :     0.017136
      py      :     0.035213


                      *****************************
                      * MAYER POPULATION ANALYSIS *
                      *****************************

  NA   - Mulliken gross atomic population
  ZA   - Total nuclear charge
  QA   - Mulliken gross atomic charge
  VA   - Mayer's total valence
  BVA  - Mayer's bonded valence
  FA   - Mayer's free valence

  ATOM       NA         ZA         QA         VA         BVA        FA
  0 O      8.1519     8.0000    -0.1519     2.2981     2.2981     0.0000
  1 C      5.9183     6.0000     0.0817     4.0033     4.0033     0.0000
  2 C      6.1325     6.0000    -0.1325     3.7767     3.7767     0.0000
  3 C      6.0758     6.0000    -0.0758     3.7700     3.7700     0.0000
  4 C      5.9665     6.0000     0.0335     3.9843     3.9843     0.0000
  5 C      5.9909     6.0000     0.0091     3.8990     3.8990     0.0000
  6 N      6.8787     7.0000     0.1213     3.6737     3.6737     0.0000
  7 H      0.8641     1.0000     0.1359     1.0399     1.0399     0.0000
  8 H      0.8302     1.0000     0.1698     1.0398     1.0398    -0.0000
  9 H      0.8610     1.0000     0.1390     1.0449     1.0449     0.0000
 10 C      6.0152     6.0000    -0.0152     3.7026     3.7026     0.0000
 11 C      6.0262     6.0000    -0.0262     3.7915     3.7915     0.0000
 12 C      5.9247     6.0000     0.0753     4.0210     4.0210     0.0000
 13 O      8.4939     8.0000    -0.4939     2.0152     2.0152     0.0000
 14 H      0.8656     1.0000     0.1344     1.1016     1.1016     0.0000
 15 H      1.0794     1.0000    -0.0794     0.9977     0.9977     0.0000
 16 H      0.9825     1.0000     0.0175     0.9965     0.9965     0.0000
 17 H      0.9552     1.0000     0.0448     0.9886     0.9886     0.0000
 18 H      0.9631     1.0000     0.0369     1.0102     1.0102     0.0000
 19 H      0.9289     1.0000     0.0711     1.0105     1.0105     0.0000
 20 H      1.0624     1.0000    -0.0624     0.9803     0.9803     0.0000
 21 H      1.0331     1.0000    -0.0331     1.0023     1.0023    -0.0000

  Mayer bond orders larger than 0.100000
B(  0-O ,  1-C ) :   1.2714 B(  0-O , 14-H ) :   0.9244 B(  1-C ,  2-C ) :   1.2471 
B(  1-C , 12-C ) :   1.2735 B(  2-C ,  3-C ) :   1.3565 B(  2-C , 15-H ) :   0.9830 
B(  3-C ,  4-C ) :   1.0555 B(  3-C , 10-C ) :   1.1742 B(  4-C ,  5-C ) :   1.0649 
B(  4-C , 16-H ) :   0.9231 B(  4-C , 17-H ) :   0.9064 B(  5-C ,  6-N ) :   0.9573 
B(  5-C , 18-H ) :   0.9159 B(  5-C , 19-H ) :   0.9336 B(  6-N ,  7-H ) :   0.9182 
B(  6-N ,  8-H ) :   0.9069 B(  6-N ,  9-H ) :   0.9157 B( 10-C , 11-C ) :   1.4777 
B( 10-C , 20-H ) :   0.9659 B( 11-C , 12-C ) :   1.1512 B( 11-C , 21-H ) :   0.9835 
B( 12-C , 13-O ) :   1.5439 B( 13-O , 14-H ) :   0.1297 

-------
TIMINGS
-------

Total SCF time: 0 days 0 hours 2 min 48 sec 

Total time                  ....     168.767 sec
Sum of individual times     ....     168.042 sec  ( 99.6%)

Fock matrix formation       ....     166.507 sec  ( 98.7%)
  XC integration            ....      11.812 sec  (  7.1% of F)
    Basis function eval.    ....       3.009 sec  ( 25.5% of XC)
    Density eval.           ....       2.806 sec  ( 23.8% of XC)
    XC-Functional eval.     ....       0.380 sec  (  3.2% of XC)
    XC-Potential eval.      ....       3.441 sec  ( 29.1% of XC)
Diagonalization             ....       0.155 sec  (  0.1%)
Density matrix formation    ....       0.099 sec  (  0.1%)
Population analysis         ....       0.009 sec  (  0.0%)
Initial guess               ....       0.009 sec  (  0.0%)
Orbital Transformation      ....       0.662 sec  (  0.4%)
Orbital Orthonormalization  ....       0.006 sec  (  0.0%)
DIIS solution               ....       0.085 sec  (  0.1%)
SOSCF solution              ....       0.017 sec  (  0.0%)
TRAH solution               ....       0.005 sec  (  0.0%)
Grid generation             ....       0.493 sec  (  0.3%)

Maximum memory used throughout the entire SCF-calculation: 238.6 MB


-------------------------------------------------------------------------------
                          DFT DISPERSION CORRECTION                            
                                                                               
                              DFTD3 V3.1  Rev 1                                
                          USING Becke-Johnson damping                          
-------------------------------------------------------------------------------
The PBE functional is recognized
Active option DFTDOPT                   ...         4   

molecular C6(AA) [au] = 4700.522605 


            DFT-D V3
 parameters
 s6 scaling factor         :     1.0000 
 a1 scaling factor         :     0.4289 
 s8 scaling factor         :     0.7875 
 a2 scaling factor         :     4.4407 
 ad hoc parameters k1-k3   :    16.0000     1.3333    -4.0000 

 Edisp/kcal,au: -14.634863532896  -0.023322137078 
 E6   /kcal   : -10.368347841 
 E8   /kcal   :  -4.266515692 
 % E8         :  29.153095159 

-------------------------   ----------------
Dispersion correction           -0.023322137
-------------------------   ----------------


-------------------------   --------------------
FINAL SINGLE POINT ENERGY      -515.552388135094
-------------------------   --------------------


                            ***************************************
                            *     ORCA property calculations      *
                            ***************************************

                                    ---------------------
                                    Active property flags
                                    ---------------------
   (+) Dipole Moment


------------------------------------------------------------------------------
                       ORCA ELECTRIC PROPERTIES CALCULATION
------------------------------------------------------------------------------

Dipole Moment Calculation                       ... on
Quadrupole Moment Calculation                   ... off
Polarizability Calculation                      ... off
GBWName                                         ... M0005.gbw
Electron density                                ... M0005.scfp
The origin for moment calculation is the CENTER OF MASS  = ( 1.319459, -0.047017  0.738000)

-------------
DIPOLE MOMENT
-------------
                                X             Y             Z
Electronic contribution:      9.24309      -1.19511       4.19674
Nuclear contribution   :    -14.41894       0.02907      -8.32270
                        -----------------------------------------
Total Dipole Moment    :     -5.17585      -1.16604      -4.12596
                        -----------------------------------------
Magnitude (a.u.)       :      6.72106
Magnitude (Debye)      :     17.08356



--------------------
Rotational spectrum 
--------------------
 
Rotational constants in cm-1:     0.069727     0.021599     0.018621 
Rotational constants in MHz :  2090.361915   647.522776   558.253821 

 Dipole components along the rotational axes: 
x,y,z [a.u.] :     6.470521     1.430303    -1.122130 
x,y,z [Debye]:    16.446757     3.635542    -2.852228 

 

Timings for individual modules:

Sum of individual times         ...      169.628 sec (=   2.827 min)
GTO integral calculation        ...        0.482 sec (=   0.008 min)   0.3 %
SCF iterations                  ...      169.146 sec (=   2.819 min)  99.7 %



                             ****ORCA TERMINATED NORMALLY****
TOTAL RUN TIME: 0 days 0 hours 12 minutes 35 seconds 310 msec
