
                                 *****************
                                 * O   R   C   A *
                                 *****************

                                            #,                                       
                                            ###                                      
                                            ####                                     
                                            #####                                    
                                            ######                                   
                                           ########,                                 
                                     ,,################,,,,,                         
                               ,,#################################,,                 
                          ,,##########################################,,             
                       ,#########################################, ''#####,          
                    ,#############################################,,   '####,        
                  ,##################################################,,,,####,       
                ,###########''''           ''''###############################       
              ,#####''   ,,,,##########,,,,          '''####'''          '####       
            ,##' ,,,,###########################,,,                        '##       
           ' ,,###''''                  '''############,,,                           
         ,,##''                                '''############,,,,        ,,,,,,###''
      ,#''                                            '''#######################'''  
     '                                                          ''''####''''         
             ,#######,   #######,   ,#######,      ##                                
            ,#'     '#,  ##    ##  ,#'     '#,    #''#        ######   ,####,        
            ##       ##  ##   ,#'  ##            #'  '#       #        #'  '#        
            ##       ##  #######   ##           ,######,      #####,   #    #        
            '#,     ,#'  ##    ##  '#,     ,#' ,#      #,         ##   #,  ,#        
             '#######'   ##     ##  '#######'  #'      '#     #####' # '####'        



                  #######################################################
                  #                        -***-                        #
                  #          Department of theory and spectroscopy      #
                  #    Directorship and core code : Frank Neese         #
                  #        Max Planck Institute fuer Kohlenforschung    #
                  #                Kaiser Wilhelm Platz 1               #
                  #                 D-45470 Muelheim/Ruhr               #
                  #                      Germany                        #
                  #                                                     #
                  #                  All rights reserved                #
                  #                        -***-                        #
                  #######################################################


                         Program Version 5.0.1 -  RELEASE  -


 With contributions from (in alphabetic order):
   Daniel Aravena         : Magnetic Suceptibility
   Michael Atanasov       : Ab Initio Ligand Field Theory (pilot matlab implementation)
   Alexander A. Auer      : GIAO ZORA, VPT2 properties, NMR spectrum
   Ute Becker             : Parallelization
   Giovanni Bistoni       : ED, misc. LED, open-shell LED, HFLD
   Martin Brehm           : Molecular dynamics
   Dmytro Bykov           : SCF Hessian
   Vijay G. Chilkuri      : MRCI spin determinant printing, contributions to CSF-ICE
   Dipayan Datta          : RHF DLPNO-CCSD density
   Achintya Kumar Dutta   : EOM-CC, STEOM-CC
   Dmitry Ganyushin       : Spin-Orbit,Spin-Spin,Magnetic field MRCI
   Miquel Garcia          : C-PCM and meta-GGA Hessian, CC/C-PCM, Gaussian charge scheme
   Yang Guo               : DLPNO-NEVPT2, F12-NEVPT2, CIM, IAO-localization
   Andreas Hansen         : Spin unrestricted coupled pair/coupled cluster methods
   Benjamin Helmich-Paris : MC-RPA, TRAH-SCF, COSX integrals
   Lee Huntington         : MR-EOM, pCC
   Robert Izsak           : Overlap fitted RIJCOSX, COSX-SCS-MP3, EOM
   Marcus Kettner         : VPT2
   Christian Kollmar      : KDIIS, OOCD, Brueckner-CCSD(T), CCSD density, CASPT2, CASPT2-K
   Simone Kossmann        : Meta GGA functionals, TD-DFT gradient, OOMP2, MP2 Hessian
   Martin Krupicka        : Initial AUTO-CI
   Lucas Lang             : DCDCAS
   Marvin Lechner         : AUTO-CI (C++ implementation), FIC-MRCC
   Dagmar Lenk            : GEPOL surface, SMD
   Dimitrios Liakos       : Extrapolation schemes; Compound Job, initial MDCI parallelization
   Dimitrios Manganas     : Further ROCIS development; embedding schemes
   Dimitrios Pantazis     : SARC Basis sets
   Anastasios Papadopoulos: AUTO-CI, single reference methods and gradients
   Taras Petrenko         : DFT Hessian,TD-DFT gradient, ASA, ECA, R-Raman, ABS, FL, XAS/XES, NRVS
   Peter Pinski           : DLPNO-MP2, DLPNO-MP2 Gradient
   Christoph Reimann      : Effective Core Potentials
   Marius Retegan         : Local ZFS, SOC
   Christoph Riplinger    : Optimizer, TS searches, QM/MM, DLPNO-CCSD(T), (RO)-DLPNO pert. Triples
   Tobias Risthaus        : Range-separated hybrids, TD-DFT gradient, RPA, STAB
   Michael Roemelt        : Original ROCIS implementation
   Masaaki Saitow         : Open-shell DLPNO-CCSD energy and density
   Barbara Sandhoefer     : DKH picture change effects
   Avijit Sen             : IP-ROCIS
   Kantharuban Sivalingam : CASSCF convergence, NEVPT2, FIC-MRCI
   Bernardo de Souza      : ESD, SOC TD-DFT
   Georgi Stoychev        : AutoAux, RI-MP2 NMR, DLPNO-MP2 response
   Willem Van den Heuvel  : Paramagnetic NMR
   Boris Wezisla          : Elementary symmetry handling
   Frank Wennmohs         : Technical directorship


 We gratefully acknowledge several colleagues who have allowed us to
 interface, adapt or use parts of their codes:
   Stefan Grimme, W. Hujo, H. Kruse, P. Pracht,  : VdW corrections, initial TS optimization,
                  C. Bannwarth, S. Ehlert          DFT functionals, gCP, sTDA/sTD-DF
   Ed Valeev, F. Pavosevic, A. Kumar             : LibInt (2-el integral package), F12 methods
   Garnet Chan, S. Sharma, J. Yang, R. Olivares  : DMRG
   Ulf Ekstrom                                   : XCFun DFT Library
   Mihaly Kallay                                 : mrcc  (arbitrary order and MRCC methods)
   Jiri Pittner, Ondrej Demel                    : Mk-CCSD
   Frank Weinhold                                : gennbo (NPA and NBO analysis)
   Christopher J. Cramer and Donald G. Truhlar   : smd solvation model
   Lars Goerigk                                  : TD-DFT with DH, B97 family of functionals
   V. Asgeirsson, H. Jonsson                     : NEB implementation
   FAccTs GmbH                                   : IRC, NEB, NEB-TS, DLPNO-Multilevel, CI-OPT
                                                   MM, QMMM, 2- and 3-layer-ONIOM, Crystal-QMMM,
                                                   LR-CPCM, SF, NACMEs, symmetry and pop. for TD-DFT,
                                                   nearIR, NL-DFT gradient (VV10), updates on ESD,
                                                   ML-optimized integration grids
   S Lehtola, MJT Oliveira, MAL Marques          : LibXC Library
   Liviu Ungur et al                             : ANISO software


 Your calculation uses the libint2 library for the computation of 2-el integrals
 For citations please refer to: http://libint.valeyev.net

 Your ORCA version has been built with support for libXC version: 5.1.0
 For citations please refer to: https://tddft.org/programs/libxc/

 This ORCA versions uses:
   CBLAS   interface :  Fast vector & matrix operations
   LAPACKE interface :  Fast linear algebra routines
   SCALAPACK package :  Parallel linear algebra routines
   Shared memory     :  Shared parallel matrices
   BLAS/LAPACK       :  OpenBLAS 0.3.15  USE64BITINT DYNAMIC_ARCH NO_AFFINITY Haswell SINGLE_THREADED
        Core in use  :  Haswell
   Copyright (c) 2011-2014, The OpenBLAS Project


Your calculation utilizes the atom-pairwise dispersion correction
with the Becke-Johnson damping scheme (D3BJ)
Cite in your paper:
S.Grimme, S.Ehrlich, L.Goerigk, J Comput Chem, (2011), 32, 1456–1465 
S.Grimme, J.Antony, S.Ehrlich and H.Krieg, J.Chem.Phys., 132, (2010), 154104 
   

================================================================================

----- Orbital basis set information -----
Your calculation utilizes the basis: def2-TZVP
   F. Weigend and R. Ahlrichs, Phys. Chem. Chem. Phys. 7, 3297 (2005).

----- AuxJ basis set information -----
Your calculation utilizes the auxiliary basis: def2/J
   F. Weigend, Phys. Chem. Chem. Phys. 8, 1057 (2006).

================================================================================
                                        WARNINGS
                       Please study these warnings very carefully!
================================================================================


WARNING: your system is open-shell and RHF/RKS was chosen
  ===> : WILL SWITCH to UHF/UKS


INFO   : the flag for use of the SHARK integral package has been found!

Your calculation utilizes the atom-pairwise dispersion correction
with the Becke-Johnson damping scheme (D3BJ)
Cite in your paper:
S.Grimme, S.Ehrlich, L.Goerigk, J Comput Chem, (2011), 32, 1456–1465 
S.Grimme, J.Antony, S.Ehrlich and H.Krieg, J.Chem.Phys., 132, (2010), 154104 
   

================================================================================

----- Orbital basis set information -----
Your calculation utilizes the basis: def2-TZVP
   F. Weigend and R. Ahlrichs, Phys. Chem. Chem. Phys. 7, 3297 (2005).

----- AuxJ basis set information -----
Your calculation utilizes the auxiliary basis: def2/J
   F. Weigend, Phys. Chem. Chem. Phys. 8, 1057 (2006).

================================================================================
                                        WARNINGS
                       Please study these warnings very carefully!
================================================================================


WARNING: MOInp is set but Guess=PModel. MOInp will be ignored!
         To read the initial guess from a file you must also specify
         'MORead' in the simple input or 'Guess MORead' in the %scf block


INFO   : the flag for use of the SHARK integral package has been found!

Your calculation utilizes the atom-pairwise dispersion correction
with the Becke-Johnson damping scheme (D3BJ)
Cite in your paper:
S.Grimme, S.Ehrlich, L.Goerigk, J Comput Chem, (2011), 32, 1456–1465 
S.Grimme, J.Antony, S.Ehrlich and H.Krieg, J.Chem.Phys., 132, (2010), 154104 
   

================================================================================

----- Orbital basis set information -----
Your calculation utilizes the basis: def2-TZVP
   F. Weigend and R. Ahlrichs, Phys. Chem. Chem. Phys. 7, 3297 (2005).

----- AuxJ basis set information -----
Your calculation utilizes the auxiliary basis: def2/J
   F. Weigend, Phys. Chem. Chem. Phys. 8, 1057 (2006).

================================================================================
                                        WARNINGS
                       Please study these warnings very carefully!
================================================================================


WARNING: MOInp is set but Guess=PModel. MOInp will be ignored!
         To read the initial guess from a file you must also specify
         'MORead' in the simple input or 'Guess MORead' in the %scf block


INFO   : the flag for use of the SHARK integral package has been found!

Your calculation utilizes the atom-pairwise dispersion correction
with the Becke-Johnson damping scheme (D3BJ)
Cite in your paper:
S.Grimme, S.Ehrlich, L.Goerigk, J Comput Chem, (2011), 32, 1456–1465 
S.Grimme, J.Antony, S.Ehrlich and H.Krieg, J.Chem.Phys., 132, (2010), 154104 
   

================================================================================

----- Orbital basis set information -----
Your calculation utilizes the basis: def2-TZVP
   F. Weigend and R. Ahlrichs, Phys. Chem. Chem. Phys. 7, 3297 (2005).

----- AuxJ basis set information -----
Your calculation utilizes the auxiliary basis: def2/J
   F. Weigend, Phys. Chem. Chem. Phys. 8, 1057 (2006).

================================================================================
                                        WARNINGS
                       Please study these warnings very carefully!
================================================================================


WARNING: MOInp is set but Guess=PModel. MOInp will be ignored!
         To read the initial guess from a file you must also specify
         'MORead' in the simple input or 'Guess MORead' in the %scf block


INFO   : the flag for use of the SHARK integral package has been found!

Your calculation utilizes the atom-pairwise dispersion correction
with the Becke-Johnson damping scheme (D3BJ)
Cite in your paper:
S.Grimme, S.Ehrlich, L.Goerigk, J Comput Chem, (2011), 32, 1456–1465 
S.Grimme, J.Antony, S.Ehrlich and H.Krieg, J.Chem.Phys., 132, (2010), 154104 
   

================================================================================

----- Orbital basis set information -----
Your calculation utilizes the basis: def2-TZVP
   F. Weigend and R. Ahlrichs, Phys. Chem. Chem. Phys. 7, 3297 (2005).

----- AuxJ basis set information -----
Your calculation utilizes the auxiliary basis: def2/J
   F. Weigend, Phys. Chem. Chem. Phys. 8, 1057 (2006).

================================================================================
                                        WARNINGS
                       Please study these warnings very carefully!
================================================================================


WARNING: MOInp is set but Guess=PModel. MOInp will be ignored!
         To read the initial guess from a file you must also specify
         'MORead' in the simple input or 'Guess MORead' in the %scf block


INFO   : the flag for use of the SHARK integral package has been found!

================================================================================
                                       INPUT FILE
================================================================================
NAME = ex.inp
|  1> ! PBE D3 def2-TZVP opt PModel
|  2> %pal nprocs=8 end
|  3> %geom maxiter=75 end
|  4> %base "1_M0005"
|  5> *xyz -1 2
|  6> 8        2.249561000     -1.841863000     -0.165908000
|  7> 8        3.249468000      0.657249000     -0.451620000
|  8> 7       -3.084232000      0.242549000     -1.357338000
|  9> 6       -2.188716000     -0.077980000      0.969998000
| 10> 6       -0.740375000      0.117388000      0.607627000
| 11> 6       -3.047488000     -0.629768000     -0.178708000
| 12> 6        0.098468000     -0.976667000      0.396777000
| 13> 6       -0.204397000      1.402002000      0.460742000
| 14> 6        1.428280000     -0.756106000      0.043963000
| 15> 6        1.143233000      1.583680000      0.103622000
| 16> 6        2.020984000      0.513725000     -0.123158000
| 17> 1       -2.616910000      0.869389000      1.322475000
| 18> 1       -2.244929000     -0.765330000      1.823814000
| 19> 1       -4.073913000     -0.759665000      0.181667000
| 20> 1       -2.691449000     -1.619393000     -0.486219000
| 21> 1       -0.256297000     -1.995555000      0.497450000
| 22> 1       -0.819276000      2.282701000      0.617511000
| 23> 1        1.526577000      2.597370000     -0.003164000
| 24> 1       -2.138388000      0.248324000     -1.757011000
| 25> 1       -3.222242000      1.205217000     -1.051837000
| 26> 1        3.074280000     -1.341635000     -0.388278000
| 27> 29      -4.269449571      0.041598906     -2.314884982
| 28> *
| 29> 
| 30> $new_job
| 31> %pal nprocs=8 end
| 32> %geom maxiter=75 end
| 33> %base "2_M0003"
| 34> ! PBE D3 def2-TZVP opt PModel NOAUTOSTART
| 35> *xyz -1 2
| 36> 8        2.250562000     -1.837087000      0.120435000
| 37> 8        3.249215000      0.590745000     -0.536637000
| 38> 7       -2.973997000     -0.755944000     -1.280420000
| 39> 6       -2.192138000      0.067321000      0.963195000
| 40> 6       -0.742966000      0.212891000      0.581727000
| 41> 6       -3.162396000      0.235163000     -0.216332000
| 42> 6        0.098118000     -0.899035000      0.541937000
| 43> 6       -0.209018000      1.460924000      0.241720000
| 44> 6        1.428294000     -0.732789000      0.162699000
| 45> 6        1.139750000      1.588258000     -0.134820000
| 46> 6        2.019863000      0.497616000     -0.193566000
| 47> 1       -2.427422000      0.814402000      1.732028000
| 48> 1       -2.358044000     -0.908916000      1.437108000
| 49> 1       -3.070819000      1.236843000     -0.651038000
| 50> 1       -4.188312000      0.143887000      0.157118000
| 51> 1       -0.254443000     -1.891885000      0.794515000
| 52> 1       -0.827414000      2.353010000      0.260268000
| 53> 1        1.521560000      2.574498000     -0.394616000
| 54> 1       -2.879698000     -1.679706000     -0.858237000
| 55> 1       -2.048479000     -0.587158000     -1.692229000
| 56> 1        3.075798000     -1.374731000     -0.171712000
| 57> 29      -3.579289782     -0.800031025     -2.767795493
| 58> *
| 59> 
| 60> $new_job
| 61> %pal nprocs=8 end
| 62> %geom maxiter=75 end
| 63> %base "3_M0004"
| 64> ! PBE D3 def2-TZVP opt PModel NOAUTOSTART
| 65> *xyz -1 2
| 66> 8        2.316592000     -1.801093000      0.257262000
| 67> 8        3.237912000      0.735278000      0.459552000
| 68> 7       -3.220340000      0.495950000      1.166711000
| 69> 6       -2.161748000     -0.219699000     -0.983872000
| 70> 6       -0.718864000      0.036438000     -0.631727000
| 71> 6       -3.015156000     -0.614276000      0.230639000
| 72> 6        0.149710000     -1.023083000     -0.368749000
| 73> 6       -0.223821000      1.341085000     -0.528716000
| 74> 6        1.467221000     -0.749389000     -0.007824000
| 75> 6        1.113387000      1.576819000     -0.162743000
| 76> 6        2.019486000      0.543168000      0.118056000
| 77> 1       -2.199130000     -1.027518000     -1.726136000
| 78> 1       -2.593812000      0.659153000     -1.479454000
| 79> 1       -2.555203000     -1.453444000      0.765034000
| 80> 1       -3.998147000     -0.949411000     -0.117394000
| 81> 1       -0.174426000     -2.054916000     -0.432357000
| 82> 1       -0.868152000      2.193757000     -0.721785000
| 83> 1        1.463678000      2.605306000     -0.089691000
| 84> 1       -2.298196000      0.881272000      1.396536000
| 85> 1       -3.574650000      0.121507000      2.044976000
| 86> 1        3.123093000     -1.267211000      0.468394000
| 87> 29      -4.085157352      2.065640878      0.195986595
| 88> *
| 89> 
| 90> $new_job
| 91> %pal nprocs=8 end
| 92> %geom maxiter=75 end
| 93> %base "4_M0007"
| 94> ! PBE D3 def2-TZVP opt PModel NOAUTOSTART
| 95> *xyz -1 2
| 96> 8        2.185387000     -1.873294000      0.196276000
| 97> 8        3.274745000      0.479286000     -0.581660000
| 98> 7       -3.065325000     -1.019145000     -1.015728000
| 99> 6       -2.179358000      0.247270000      0.951491000
|100> 6       -0.721305000      0.314174000      0.575653000
|101> 6       -3.112091000      0.241150000     -0.268855000
|102> 6        0.074096000     -0.831151000      0.585929000
|103> 6       -0.139187000      1.522821000      0.175318000
|104> 6        1.407698000     -0.736242000      0.192714000
|105> 6        1.211117000      1.578657000     -0.212189000
|106> 6        2.045798000      0.451654000     -0.225280000
|107> 1       -2.415811000      1.116754000      1.578446000
|108> 1       -2.370189000     -0.631952000      1.580195000
|109> 1       -2.864044000      1.068365000     -0.943814000
|110> 1       -4.142709000      0.394257000      0.068937000
|111> 1       -0.321742000     -1.795362000      0.883523000
|112> 1       -0.722100000      2.438271000      0.153397000
|113> 1        1.630497000      2.535483000     -0.519306000
|114> 1       -2.080775000     -1.236236000     -1.203773000
|115> 1       -3.483728000     -0.875277000     -1.932682000
|116> 1        3.026209000     -1.458215000     -0.120447000
|117> 29      -3.144425459     -2.589146007     -0.231855374
|118> *
|119> 
|120> $new_job
|121> %pal nprocs=8 end
|122> %geom maxiter=75 end
|123> %base "5_M0006"
|124> ! PBE D3 def2-TZVP opt PModel NOAUTOSTART
|125> *xyz -1 2
|126> 8        2.394153000     -1.874655000     -0.048523000
|127> 8        3.462705000      0.594594000     -0.343502000
|128> 7       -4.323272000     -0.240881000     -0.391632000
|129> 6       -2.083782000      0.002404000      0.654556000
|130> 6       -0.610339000      0.161734000      0.400458000
|131> 6       -2.885648000     -0.083341000     -0.649455000
|132> 6        0.220338000     -0.953543000      0.297203000
|133> 6       -0.042677000      1.430295000      0.237326000
|134> 6        1.578880000     -0.768454000      0.048575000
|135> 6        1.333349000      1.575979000     -0.012973000
|136> 6        2.207814000      0.484141000     -0.117403000
|137> 1       -2.438551000      0.844902000      1.262683000
|138> 1       -2.252558000     -0.896577000      1.261886000
|139> 1       -2.543380000     -0.930347000     -1.254907000
|140> 1       -2.735703000      0.820432000     -1.250956000
|141> 1       -0.161654000     -1.961703000      0.405490000
|142> 1       -0.654670000      2.324669000      0.301418000
|143> 1        1.742196000      2.578170000     -0.132430000
|144> 1       -4.636562000      0.533032000      0.192563000
|145> 1       -4.462210000     -1.085003000      0.162605000
|146> 1        3.243520000     -1.396202000     -0.220443000
|147> 29      -4.568879845     -0.194470674     -2.036994682
|148> **                         ****END OF INPUT****
================================================================================


                 $$$$$$$$$$$$$$$$$$$$$$$$$$$$$$$$$$$$$$$$$$$$$$ 
                 $ THERE ARE  5 JOBS TO BE PROCESSED THIS RUN $
                 $$$$$$$$$$$$$$$$$$$$$$$$$$$$$$$$$$$$$$$$$$$$$$ 




                 $$$$$$$$$$$$$$$$  JOB NUMBER  1 $$$$$$$$$$$$$$


                       *****************************
                       * Geometry Optimization Run *
                       *****************************

Geometry optimization settings:
Update method            Update   .... BFGS
Choice of coordinates    CoordSys .... Z-matrix Internals
Initial Hessian          InHess   .... Almoef's Model

Convergence Tolerances:
Energy Change            TolE     ....  5.0000e-06 Eh
Max. Gradient            TolMAXG  ....  3.0000e-04 Eh/bohr
RMS Gradient             TolRMSG  ....  1.0000e-04 Eh/bohr
Max. Displacement        TolMAXD  ....  4.0000e-03 bohr
RMS Displacement         TolRMSD  ....  2.0000e-03 bohr
Strict Convergence                ....  False
------------------------------------------------------------------------------
                        ORCA OPTIMIZATION COORDINATE SETUP
------------------------------------------------------------------------------

The optimization will be done in new redundant internal coordinates
Making redundant internal coordinates   ...  (new redundants) done
Evaluating the initial hessian          ...  (Almloef) done
Evaluating the coordinates              ...  done
Calculating the B-matrix                .... done
Calculating the G-matrix                .... done
Diagonalizing the G-matrix              .... done
Small eigenvalue found = 1.657e-02
The first mode is                       ....   94
The number of degrees of freedom        ....   60

    -----------------------------------------------------------------
                    Redundant Internal Coordinates


    -----------------------------------------------------------------
         Definition                    Initial Value    Approx d2E/dq
    -----------------------------------------------------------------
      1. B(C   4,C   3)                  1.5057         0.408437   
      2. B(C   5,C   3)                  1.5367         0.364476   
      3. B(C   5,N   2)                  1.4668         0.422057   
      4. B(C   6,C   4)                  1.3947         0.614195   
      5. B(C   7,C   4)                  1.3997         0.602987   
      6. B(C   8,C   6)                  1.3934         0.617073   
      7. B(C   8,O   0)                  1.3775         0.585963   
      8. B(C   9,C   7)                  1.4059         0.589275   
      9. B(C  10,C   9)                  1.4024         0.597010   
     10. B(C  10,C   8)                  1.4113         0.577823   
     11. B(C  10,O   1)                  1.2797         0.839141   
     12. B(H  11,C   3)                  1.0978         0.349967   
     13. B(H  12,C   3)                  1.0975         0.350252   
     14. B(H  13,C   5)                  1.0956         0.352796   
     15. B(H  14,C   5)                  1.0958         0.352564   
     16. B(H  15,C   6)                  1.0836         0.368706   
     17. B(H  16,C   7)                  1.0855         0.366119   
     18. B(H  17,C   9)                  1.0890         0.361424   
     19. B(H  18,N   2)                  1.0268         0.406756   
     20. B(H  19,N   2)                  1.0194         0.418073   
     21. B(H  20,O   0)                  0.9899         0.465924   
     22. B(Cu 21,H  19)                  2.0115         0.123432   
     23. B(Cu 21,H  18)                  2.2126         0.058964   
     24. B(Cu 21,C   5)                  2.5509         0.088858   
     25. B(Cu 21,N   2)                  1.5369         3.301060   
     26. A(C   8,O   0,H  20)           97.6227         0.359739   
     27. A(H  18,N   2,H  19)          103.6534         0.298640   
     28. A(H  19,N   2,Cu 21)          101.8760         0.541306   
     29. A(C   5,N   2,H  19)          108.9175         0.334270   
     30. A(C   5,N   2,Cu 21)          116.2446         0.614904   
     31. A(H  18,N   2,Cu 21)          117.9424         0.538505   
     32. A(C   5,N   2,H  18)          107.0396         0.332752   
     33. A(H  11,C   3,H  12)          105.7059         0.288285   
     34. A(C   4,C   3,H  11)          109.9070         0.327573   
     35. A(C   5,C   3,H  12)          109.1484         0.321545   
     36. A(C   5,C   3,H  11)          109.3848         0.321502   
     37. A(C   4,C   3,C   5)          113.8432         0.367390   
     38. A(C   4,C   3,H  12)          108.5265         0.327617   
     39. A(C   3,C   4,C   7)          120.8426         0.400989   
     40. A(C   6,C   4,C   7)          118.2805         0.431171   
     41. A(C   3,C   4,C   6)          120.8739         0.402293   
     42. A(H  14,C   5,Cu 21)           99.1101         0.284420   
     43. A(N   2,C   5,C   3)          113.6478         0.367157   
     44. A(H  13,C   5,H  14)          106.8368         0.288946   
     45. A(N   2,C   5,H  14)          108.6475         0.327772   
     46. A(C   3,C   5,H  13)          108.6783         0.321926   
     47. A(C   3,C   5,H  14)          110.6397         0.321892   
     48. A(H  13,C   5,Cu 21)           81.8288         0.284449   
     49. A(N   2,C   5,H  13)          108.1411         0.327808   
     50. A(C   3,C   5,Cu 21)          143.0511         0.316654   
     51. A(N   2,C   5,Cu 21)           32.7093         0.322402   
     52. A(C   8,C   6,H  15)          119.0015         0.354039   
     53. A(C   4,C   6,H  15)          121.7803         0.353759   
     54. A(C   4,C   6,C   8)          119.2180         0.432963   
     55. A(C   9,C   7,H  16)          118.3467         0.350871   
     56. A(C   4,C   7,H  16)          120.8355         0.352238   
     57. A(C   4,C   7,C   9)          120.8177         0.427978   
     58. A(O   0,C   8,C   6)          118.8705         0.426519   
     59. A(C   6,C   8,C  10)          124.9755         0.428244   
     60. A(O   0,C   8,C  10)          116.1539         0.421536   
     61. A(C  10,C   9,H  17)          118.2948         0.350879   
     62. A(C   7,C   9,H  17)          118.8560         0.350107   
     63. A(C   7,C   9,C  10)          122.8491         0.427214   
     64. A(C   8,C  10,C   9)          113.8582         0.425715   
     65. A(O   1,C  10,C   9)          123.8336         0.452371   
     66. A(O   1,C  10,C   8)          122.3082         0.449694   
     67. A(N   2,H  18,Cu 21)           37.8533         0.253904   
     68. A(N   2,H  19,Cu 21)           48.3927         0.285131   
     69. A(H  18,Cu 21,H  19)           44.4530         0.243277   
     70. A(C   5,Cu 21,H  19)           51.4661         0.275640   
     71. A(N   2,Cu 21,H  19)           29.7313         0.509539   
     72. A(C   5,Cu 21,H  18)           49.6134         0.246902   
     73. A(N   2,Cu 21,H  18)           24.2043         0.444786   
     74. A(N   2,Cu 21,C   5)           31.0462         0.519419   
     75. D(C   6,C   4,C   3,H  12)     51.5633         0.012359   
     76. D(C   6,C   4,C   3,H  11)    166.7135         0.012359   
     77. D(C   7,C   4,C   3,H  12)   -129.0733         0.012359   
     78. D(C   7,C   4,C   3,C   5)    109.1691         0.012359   
     79. D(C   6,C   4,C   3,C   5)    -70.1943         0.012359   
     80. D(C   7,C   4,C   3,H  11)    -13.9231         0.012359   
     81. D(H  14,C   5,N   2,H  19)   -168.1871         0.017297   
     82. D(H  14,C   5,C   3,C   4)     61.7308         0.011274   
     83. D(Cu 21,C   5,C   3,C   4)    -79.7364         0.011274   
     84. D(Cu 21,C   5,N   2,H  18)   -134.2294         0.017297   
     85. D(H  13,C   5,N   2,Cu 21)    -38.0979         0.017297   
     86. D(H  14,C   5,N   2,Cu 21)     77.5127         0.017297   
     87. D(Cu 21,C   5,C   3,H  11)     43.6403         0.011274   
     88. D(C   3,C   5,N   2,H  18)     66.9177         0.017297   
     89. D(H  13,C   5,C   3,C   4)    178.7351         0.011274   
     90. D(H  13,C   5,N   2,H  18)   -172.3272         0.017297   
     91. D(N   2,C   5,C   3,H  11)     62.5645         0.011274   
     92. D(N   2,C   5,C   3,H  12)    177.7753         0.011274   
     93. D(N   2,C   5,C   3,C   4)    -60.8122         0.011274   
     94. D(H  13,C   5,N   2,H  19)     76.2023         0.017297   
     95. D(H  13,C   5,C   3,H  11)    -57.8882         0.011274   
     96. D(H  13,C   5,C   3,H  12)     57.3226         0.011274   
     97. D(Cu 21,C   5,N   2,H  19)    114.3002         0.017297   
     98. D(H  14,C   5,C   3,H  11)   -174.8924         0.011274   
     99. D(H  14,C   5,N   2,H  18)    -56.7167         0.017297   
    100. D(H  14,C   5,C   3,H  12)    -59.6817         0.011274   
    101. D(C   3,C   5,N   2,H  19)    -44.5527         0.017297   
    102. D(Cu 21,C   5,C   3,H  12)    158.8511         0.011274   
    103. D(C   3,C   5,N   2,Cu 21)   -158.8529         0.017297   
    104. D(C   8,C   6,C   4,C   7)     -0.2995         0.026074   
    105. D(C   8,C   6,C   4,C   3)    179.0799         0.026074   
    106. D(H  15,C   6,C   4,C   7)    179.8545         0.026074   
    107. D(H  15,C   6,C   4,C   3)     -0.7661         0.026074   
    108. D(C   9,C   7,C   4,C   6)      0.2982         0.025079   
    109. D(H  16,C   7,C   4,C   3)      0.7809         0.025079   
    110. D(H  16,C   7,C   4,C   6)   -179.8395         0.025079   
    111. D(C   9,C   7,C   4,C   3)   -179.0814         0.025079   
    112. D(C  10,C   8,C   6,C   4)      0.0598         0.026334   
    113. D(O   0,C   8,C   6,H  15)      0.0144         0.026334   
    114. D(O   0,C   8,C   6,C   4)   -179.8359         0.026334   
    115. D(C  10,C   8,O   0,H  20)      0.0288         0.025002   
    116. D(C  10,C   8,C   6,H  15)    179.9101         0.026334   
    117. D(C   6,C   8,O   0,H  20)    179.9336         0.025002   
    118. D(H  17,C   9,C   7,H  16)      0.0559         0.023894   
    119. D(H  17,C   9,C   7,C   4)    179.9216         0.023894   
    120. D(C  10,C   9,C   7,H  16)   -179.9158         0.023894   
    121. D(C  10,C   9,C   7,C   4)     -0.0502         0.023894   
    122. D(C   8,C  10,C   9,C   7)     -0.1813         0.024558   
    123. D(O   1,C  10,C   9,H  17)     -0.1295         0.024558   
    124. D(O   1,C  10,C   9,C   7)    179.8424         0.024558   
    125. D(C   9,C  10,C   8,C   6)      0.1790         0.022931   
    126. D(C   9,C  10,C   8,O   0)   -179.9228         0.022931   
    127. D(O   1,C  10,C   8,C   6)   -179.8444         0.022931   
    128. D(C   8,C  10,C   9,H  17)    179.8468         0.024558   
    129. D(O   1,C  10,C   8,O   0)      0.0539         0.022931   
    130. D(Cu 21,H  18,N   2,H  19)   -111.6276         0.205122   
    131. D(Cu 21,H  18,N   2,C   5)    133.3228         0.205122   
    132. D(Cu 21,H  19,N   2,H  18)    122.9455         0.219764   
    133. D(Cu 21,H  19,N   2,C   5)   -123.3498         0.219764   
    134. D(H  18,Cu 21,N   2,H  19)    112.6182         0.063466   
    135. D(H  18,Cu 21,N   2,C   5)   -129.1489         0.063466   
    136. D(C   5,Cu 21,N   2,H  19)   -118.2329         0.063466   
    137. D(C   5,Cu 21,N   2,H  18)    129.1489         0.063466   
    138. D(H  18,Cu 21,H  19,N   2)    -32.7112         0.001847   
    139. D(H  19,Cu 21,H  18,N   2)     40.8199         0.001580   
    140. D(C   5,Cu 21,H  18,N   2)    -31.6739         0.001580   
    141. D(H  19,Cu 21,C   5,H  14)   -144.4182         0.001541   
    142. D(H  19,Cu 21,C   5,C   3)     -0.6054         0.001541   
    143. D(H  19,Cu 21,C   5,N   2)    -33.9568         0.001541   
    144. D(H  18,Cu 21,C   5,H  14)    -85.7891         0.001541   
    145. D(H  18,Cu 21,C   5,H  13)    168.3484         0.001541   
    146. D(H  18,Cu 21,C   5,C   3)     58.0238         0.001541   
    147. D(H  18,Cu 21,C   5,N   2)     24.6724         0.001541   
    148. D(H  19,Cu 21,C   5,H  13)    109.7193         0.001541   
    149. D(N   2,Cu 21,C   5,H  14)   -110.4615         0.001541   
    150. D(N   2,Cu 21,C   5,H  13)    143.6760         0.001541   
    151. D(N   2,Cu 21,C   5,C   3)     33.3514         0.001541   
    152. D(C   5,Cu 21,H  19,N   2)     35.5112         0.001847   
    153. D(H  19,Cu 21,N   2,H  18)   -112.6182         0.063466   
    154. D(H  19,Cu 21,N   2,C   5)    118.2329         0.063466   
    -----------------------------------------------------------------

Number of atoms                         .... 22
Number of degrees of freedom            .... 154

         *************************************************************
         *                GEOMETRY OPTIMIZATION CYCLE   1            *
         *************************************************************
---------------------------------
CARTESIAN COORDINATES (ANGSTROEM)
---------------------------------
  O      2.249561   -1.841863   -0.165908
  O      3.249468    0.657249   -0.451620
  N     -3.084232    0.242549   -1.357338
  C     -2.188716   -0.077980    0.969998
  C     -0.740375    0.117388    0.607627
  C     -3.047488   -0.629768   -0.178708
  C      0.098468   -0.976667    0.396777
  C     -0.204397    1.402002    0.460742
  C      1.428280   -0.756106    0.043963
  C      1.143233    1.583680    0.103622
  C      2.020984    0.513725   -0.123158
  H     -2.616910    0.869389    1.322475
  H     -2.244929   -0.765330    1.823814
  H     -4.073913   -0.759665    0.181667
  H     -2.691449   -1.619393   -0.486219
  H     -0.256297   -1.995555    0.497450
  H     -0.819276    2.282701    0.617511
  H      1.526577    2.597370   -0.003164
  H     -2.138388    0.248324   -1.757011
  H     -3.222242    1.205217   -1.051837
  H      3.074280   -1.341635   -0.388278
  Cu    -4.269450    0.041599   -2.314885

----------------------------
CARTESIAN COORDINATES (A.U.)
----------------------------
  NO LB      ZA    FRAG     MASS         X           Y           Z
   0 O     8.0000    0    15.999    4.251054   -3.480617   -0.313521
   1 O     8.0000    0    15.999    6.140605    1.242021   -0.853438
   2 N     7.0000    0    14.007   -5.828354    0.458351   -2.564997
   3 C     6.0000    0    12.011   -4.136074   -0.147361    1.833031
   4 C     6.0000    0    12.011   -1.399106    0.221831    1.148249
   5 C     6.0000    0    12.011   -5.758918   -1.190089   -0.337709
   6 C     6.0000    0    12.011    0.186078   -1.845633    0.749800
   7 C     6.0000    0    12.011   -0.386254    2.649400    0.870676
   8 C     6.0000    0    12.011    2.699058   -1.428833    0.083078
   9 C     6.0000    0    12.011    2.160397    2.992721    0.195817
  10 C     6.0000    0    12.011    3.819106    0.970800   -0.232735
  11 H     1.0000    0     1.008   -4.945243    1.642907    2.499116
  12 H     1.0000    0     1.008   -4.242301   -1.446264    3.446509
  13 H     1.0000    0     1.008   -7.698580   -1.435559    0.343301
  14 H     1.0000    0     1.008   -5.086102   -3.060209   -0.918821
  15 H     1.0000    0     1.008   -0.484331   -3.771052    0.940044
  16 H     1.0000    0     1.008   -1.548207    4.313680    1.166927
  17 H     1.0000    0     1.008    2.884812    4.908318   -0.005979
  18 H     1.0000    0     1.008   -4.040968    0.469264   -3.320270
  19 H     1.0000    0     1.008   -6.089155    2.277530   -1.987684
  20 H     1.0000    0     1.008    5.809547   -2.535323   -0.733739
  21 Cu   29.0000    0    63.550   -8.068090    0.078611   -4.374499

--------------------------------
INTERNAL COORDINATES (ANGSTROEM)
--------------------------------
 O      0   0   0     0.000000000000     0.00000000     0.00000000
 O      1   0   0     2.706844314721     0.00000000     0.00000000
 N      1   2   0     5.849241540362    89.21728150     0.00000000
 C      3   1   2     2.514195816358    56.02865706   264.72734055
 C      4   3   1     1.505713468541    95.92883293    28.61096242
 C      3   1   2     1.466784151443    66.51885507   227.53346210
 C      5   4   3     1.394658253542   120.87391087   261.83210662
 C      5   4   3     1.399671657463   120.84259906    81.19555951
 C      1   2   3     1.377467451757    60.56679486   334.62443466
 C      8   5   4     1.405933215691   120.81765436   180.91857495
 C      2   1   3     1.279710655686    60.97109498    25.40356014
 H      4   3   1     1.097769629442    92.76659729   138.96033254
 H      4   3   1     1.097548033448   141.41749220   258.63941438
 H      6   3   1     1.095578227175   108.14109311   184.31688471
 H      6   3   1     1.095757466444   108.64752176   299.92742920
 H      7   5   4     1.083570955082   121.78032834   359.23394716
 H      8   5   4     1.085487647375   120.83554402     0.78087969
 H     10   8   5     1.089001050611   118.85601595   179.92156234
 H      3   1   2     1.026836272192    40.65317097    52.46175714
 H      3   1   2     1.019366126240   113.51238260   328.86460409
 H      1   2   3     0.989867616323    37.05596599   154.71246535
 Cu     3   1   2     1.536885764663   141.58552731   124.34685624

---------------------------
INTERNAL COORDINATES (A.U.)
---------------------------
 O      0   0   0     0.000000000000     0.00000000     0.00000000
 O      1   0   0     5.115194441984     0.00000000     0.00000000
 N      1   2   0    11.053464602439    89.21728150     0.00000000
 C      3   1   2     4.751141539968    56.02865706   264.72734055
 C      4   3   1     2.845386091699    95.92883293    28.61096242
 C      3   1   2     2.771820343804    66.51885507   227.53346210
 C      5   4   3     2.635522149608   120.87391087   261.83210662
 C      5   4   3     2.644996110017   120.84259906    81.19555951
 C      1   2   3     2.603036242212    60.56679486   334.62443466
 C      8   5   4     2.656828740240   120.81765436   180.91857495
 C      2   1   3     2.418302669907    60.97109498    25.40356014
 H      4   3   1     2.074483957782    92.76659729   138.96033254
 H      4   3   1     2.074065202040   141.41749220   258.63941438
 H      6   3   1     2.070342807647   108.14109311   184.31688471
 H      6   3   1     2.070681520778   108.64752176   299.92742920
 H      7   5   4     2.047652351777   121.78032834   359.23394716
 H      8   5   4     2.051274375293   120.83554402     0.78087969
 H     10   8   5     2.057913745207   118.85601595   179.92156234
 H      3   1   2     1.940439338820    40.65317097    52.46175714
 H      3   1   2     1.926322808789   113.51238260   328.86460409
 H      1   2   3     1.870578703688    37.05596599   154.71246535
 Cu     3   1   2     2.904293194335   141.58552731   124.34685624

---------------------
BASIS SET INFORMATION
---------------------
There are 5 groups of distinct atoms

 Group   1 Type O   : 11s6p2d1f contracted to 5s3p2d1f pattern {62111/411/11/1}
 Group   2 Type N   : 11s6p2d1f contracted to 5s3p2d1f pattern {62111/411/11/1}
 Group   3 Type C   : 11s6p2d1f contracted to 5s3p2d1f pattern {62111/411/11/1}
 Group   4 Type H   : 5s1p contracted to 3s1p pattern {311/1}
 Group   5 Type Cu  : 17s11p7d1f contracted to 6s4p4d1f pattern {842111/6311/4111/1}

Atom   0O    basis set group =>   1
Atom   1O    basis set group =>   1
Atom   2N    basis set group =>   2
Atom   3C    basis set group =>   3
Atom   4C    basis set group =>   3
Atom   5C    basis set group =>   3
Atom   6C    basis set group =>   3
Atom   7C    basis set group =>   3
Atom   8C    basis set group =>   3
Atom   9C    basis set group =>   3
Atom  10C    basis set group =>   3
Atom  11H    basis set group =>   4
Atom  12H    basis set group =>   4
Atom  13H    basis set group =>   4
Atom  14H    basis set group =>   4
Atom  15H    basis set group =>   4
Atom  16H    basis set group =>   4
Atom  17H    basis set group =>   4
Atom  18H    basis set group =>   4
Atom  19H    basis set group =>   4
Atom  20H    basis set group =>   4
Atom  21Cu   basis set group =>   5
---------------------------------
AUXILIARY/J BASIS SET INFORMATION
---------------------------------
There are 5 groups of distinct atoms

 Group   1 Type O   : 12s5p4d2f1g contracted to 6s4p3d1f1g pattern {711111/2111/211/2/1}
 Group   2 Type N   : 12s5p4d2f1g contracted to 6s4p3d1f1g pattern {711111/2111/211/2/1}
 Group   3 Type C   : 12s5p4d2f1g contracted to 6s4p3d1f1g pattern {711111/2111/211/2/1}
 Group   4 Type H   : 5s2p1d contracted to 3s1p1d pattern {311/2/1}
 Group   5 Type Cu  : 19s5p5d3f3g contracted to 8s5p4d3f3g pattern {121111111/11111/2111/111/111}

Atom   0O    basis set group =>   1
Atom   1O    basis set group =>   1
Atom   2N    basis set group =>   2
Atom   3C    basis set group =>   3
Atom   4C    basis set group =>   3
Atom   5C    basis set group =>   3
Atom   6C    basis set group =>   3
Atom   7C    basis set group =>   3
Atom   8C    basis set group =>   3
Atom   9C    basis set group =>   3
Atom  10C    basis set group =>   3
Atom  11H    basis set group =>   4
Atom  12H    basis set group =>   4
Atom  13H    basis set group =>   4
Atom  14H    basis set group =>   4
Atom  15H    basis set group =>   4
Atom  16H    basis set group =>   4
Atom  17H    basis set group =>   4
Atom  18H    basis set group =>   4
Atom  19H    basis set group =>   4
Atom  20H    basis set group =>   4
Atom  21Cu   basis set group =>   5


           ************************************************************
           *        Program running with 8 parallel MPI-processes     *
           *              working on a common directory               *
           ************************************************************
------------------------------------------------------------------------------
                           ORCA GTO INTEGRAL CALCULATION
                           -- RI-GTO INTEGRALS CHOSEN --
------------------------------------------------------------------------------
------------------------------------------------------------------------------
                   ___                                                        
                  /   \      - P O W E R E D   B Y -                         
                 /     \                                                     
                 |  |  |   _    _      __       _____    __    __             
                 |  |  |  | |  | |    /  \     |  _  \  |  |  /  |          
                  \  \/   | |  | |   /    \    | | | |  |  | /  /          
                 / \  \   | |__| |  /  /\  \   | |_| |  |  |/  /          
                |  |  |   |  __  | /  /__\  \  |    /   |      \           
                |  |  |   | |  | | |   __   |  |    \   |  |\   \          
                \     /   | |  | | |  |  |  |  | |\  \  |  | \   \       
                 \___/    |_|  |_| |__|  |__|  |_| \__\ |__|  \__/        
                                                                              
                      - O R C A' S   B I G   F R I E N D -                    
                                      &                                       
                       - I N T E G R A L  F E E D E R -                       
                                                                              
 v1 FN, 2020, v2 2021                                                         
------------------------------------------------------------------------------


Reading SHARK input file 1_M0005.SHARKINP.tmp ... ok
----------------------
SHARK INTEGRAL PACKAGE
----------------------

Number of atoms                             ...     22
Number of basis functions                   ...    446
Number of shells                            ...    176
Maximum angular momentum                    ...      3
Integral batch strategy                     ... SHARK/LIBINT Hybrid
RI-J (if used) integral strategy            ... SPLIT-RIJ (Revised 2003 algorithm where possible)
Printlevel                                  ...      1
Contraction scheme used                     ... SEGMENTED contraction
Coulomb Range Separation                    ... NOT USED
Exchange Range Separation                   ... NOT USED
Finite Nucleus Model                        ... NOT USED
Auxiliary Coulomb fitting basis             ... AVAILABLE
   # of basis functions in Aux-J            ...    740
   # of shells in Aux-J                     ...    238
   Maximum angular momentum in Aux-J        ...      4
Auxiliary J/K fitting basis                 ... NOT available
Auxiliary Correlation fitting basis         ... NOT available
Auxiliary 'external' fitting basis          ... NOT available
Integral threshold                          ...     2.500000e-11
Primitive cut-off                           ...     2.500000e-12
Primitive pair pre-selection threshold      ...     2.500000e-12

Calculating pre-screening integrals         ... done (  0.1 sec) Dimension = 176
Organizing shell pair data                  ... done (  0.1 sec)
Shell pair information
Total number of shell pairs                 ...     15576
Shell pairs after pre-screening             ...     12828
Total number of primitive shell pairs       ...     50417
Primitive shell pairs kept                  ...     28842
          la=0 lb=0:   3362 shell pairs
          la=1 lb=0:   3598 shell pairs
          la=1 lb=1:    988 shell pairs
          la=2 lb=0:   1932 shell pairs
          la=2 lb=1:   1037 shell pairs
          la=2 lb=2:    288 shell pairs
          la=3 lb=0:    850 shell pairs
          la=3 lb=1:    464 shell pairs
          la=3 lb=2:    248 shell pairs
          la=3 lb=3:     61 shell pairs

Calculating one electron integrals          ... done (  0.0 sec)
Calculating RI/J V-Matrix + Cholesky decomp.... done (  0.0 sec)
Calculating Nuclear repulsion               ... done (  0.0 sec) ENN=    895.336701354095 Eh

SHARK setup successfully completed in   0.3 seconds

Maximum memory used throughout the entire GTOINT-calculation: 22.3 MB


           ************************************************************
           *        Program running with 8 parallel MPI-processes     *
           *              working on a common directory               *
           ************************************************************
-------------------------------------------------------------------------------
                                 ORCA SCF
-------------------------------------------------------------------------------

------------
SCF SETTINGS
------------
Hamiltonian:
 Density Functional     Method          .... DFT(GTOs)
 Exchange Functional    Exchange        .... PBE
   PBE kappa parameter   XKappa         ....  0.804000
   PBE mue parameter    XMuePBE         ....  0.219520
 Correlation Functional Correlation     .... PBE
   PBE beta parameter  CBetaPBE         ....  0.066725
 LDA part of GGA corr.  LDAOpt          .... PW91-LDA
 Gradients option       PostSCFGGA      .... off
   Density functional embedding theory  .... OFF
   NL short-range parameter             ....  6.400000
 RI-approximation to the Coulomb term is turned on
   Number of AuxJ basis functions       .... 740


General Settings:
 Integral files         IntName         .... 1_M0005
 Hartree-Fock type      HFTyp           .... UHF
 Total Charge           Charge          ....   -1
 Multiplicity           Mult            ....    2
 Number of Electrons    NEL             ....  111
 Basis Dimension        Dim             ....  446
 Nuclear Repulsion      ENuc            ....    895.3367013541 Eh

Convergence Acceleration:
 DIIS                   CNVDIIS         .... on
   Start iteration      DIISMaxIt       ....    12
   Startup error        DIISStart       ....  0.200000
   # of expansion vecs  DIISMaxEq       ....     5
   Bias factor          DIISBfac        ....   1.050
   Max. coefficient     DIISMaxC        ....  10.000
 Trust-Rad. Augm. Hess. CNVTRAH         .... auto
   Auto Start mean grad. ratio tolernc. ....  1.125000
   Auto Start start iteration           ....    20
   Auto Start num. interpolation iter.  ....    10
   Max. Number of Micro iterations      ....    16
   Max. Number of Macro iterations      .... Maxiter - #DIIS iter
   Number of Davidson start vectors     ....     2
   Converg. threshold I  (grad. norm)   ....   1.000e-05
   Converg. threshold II (energy diff.) ....   1.000e-08
   Grad. Scal. Fac. for Micro threshold ....   0.100
   Minimum threshold for Micro iter.    ....   0.010
   NR start threshold (gradient norm)   ....   0.001
   Initial trust radius                 ....   0.400
   Minimum AH scaling param. (alpha)    ....   1.000
   Maximum AH scaling param. (alpha)    .... 1000.000
   Orbital update algorithm             .... Taylor
   White noise on init. David. guess    .... on
   Maximum white noise                  ....   0.010
   Quad. conv. algorithm                .... NR
 SOSCF                  CNVSOSCF        .... off
 Level Shifting         CNVShift        .... on
   Level shift para.    LevelShift      ....    0.2500
   Turn off err/grad.   ShiftErr        ....    0.0010
 Zerner damping         CNVZerner       .... off
 Static damping         CNVDamp         .... on
   Fraction old density DampFac         ....    0.7000
   Max. Damping (<1)    DampMax         ....    0.9800
   Min. Damping (>=0)   DampMin         ....    0.0000
   Turn off err/grad.   DampErr         ....    0.1000
 Fernandez-Rico         CNVRico         .... off

SCF Procedure:
 Maximum # iterations   MaxIter         ....   125
 SCF integral mode      SCFMode         .... Direct
   Integral package                     .... SHARK and LIBINT hybrid scheme
 Reset frequency        DirectResetFreq ....    20
 Integral Threshold     Thresh          ....  2.500e-11 Eh
 Primitive CutOff       TCut            ....  2.500e-12 Eh

Convergence Tolerance:
 Convergence Check Mode ConvCheckMode   .... Total+1el-Energy
 Convergence forced     ConvForced      .... 0
 Energy Change          TolE            ....  1.000e-08 Eh
 1-El. energy change                    ....  1.000e-05 Eh
 DIIS Error             TolErr          ....  5.000e-07


Diagonalization of the overlap matrix:
Smallest eigenvalue                        ... 1.018e-05
Time for diagonalization                   ...    0.029 sec
Threshold for overlap eigenvalues          ... 1.000e-08
Number of eigenvalues below threshold      ... 0
Time for construction of square roots      ...    0.023 sec
Total time needed                          ...    0.053 sec

Time for model grid setup =    0.122 sec

------------------------------
INITIAL GUESS: MODEL POTENTIAL
------------------------------
Loading Hartree-Fock densities                     ... done
Calculating cut-offs                               ... done
Initializing the effective Hamiltonian             ... done
Setting up the integral package (SHARK)            ... done
Starting the Coulomb interaction                   ... done (   0.1 sec)
Reading the grid                                   ... done
Mapping shells                                     ... done
Starting the XC term evaluation                    ... done (   0.1 sec)
  promolecular density results
     # of electrons  =    109.990442791
     EX              =   -132.311749331
     EC              =     -4.084790691
     EX+EC           =   -136.396540023
Transforming the Hamiltonian                       ... done (   0.0 sec)
Diagonalizing the Hamiltonian                      ... done (   0.0 sec)
Back transforming the eigenvectors                 ... done (   0.0 sec)
Now organizing SCF variables                       ... done
                      ------------------
                      INITIAL GUESS DONE (   0.5 sec)
                      ------------------
-------------------
DFT GRID GENERATION
-------------------

General Integration Accuracy     IntAcc      ... 4.388
Radial Grid Type                 RadialGrid  ... OptM3 with GC (2021)
Angular Grid (max. ang.)         AngularGrid ... 4 (Lebedev-302)
Angular grid pruning method      GridPruning ... 4 (adaptive)
Weight generation scheme         WeightScheme... Becke
Basis function cutoff            BFCut       ... 1.0000e-11
Integration weight cutoff        WCut        ... 1.0000e-14
Angular grids for H and He will be reduced by one unit
Partially contracted basis set               ... off
Rotationally invariant grid construction     ... off

Total number of grid points                  ...   109009
Total number of batches                      ...     1715
Average number of points per batch           ...       63
Average number of grid points per atom       ...     4955
Time for grid setup =    0.631 sec

--------------
SCF ITERATIONS
--------------
ITER       Energy         Delta-E        Max-DP      RMS-DP      [F,P]     Damp
               ***  Starting incremental Fock matrix formation  ***
  0  -2155.4293762957   0.000000000000 0.53198289  0.00367584  0.3314711 0.7000
  1  -2155.6611810437  -0.231804748057 0.36705188  0.00268261  0.0934609 0.7000
                               ***Turning on DIIS***
  2  -2155.7355792884  -0.074398244679 0.22233889  0.00173894  0.0501241 0.0000
  3  -2155.8604903814  -0.124911092955 0.36116224  0.00252749  0.0959646 0.0000
  4  -2155.8963670189  -0.035876637577 0.07421849  0.00055447  0.0325998 0.0000
  5  -2155.9000789932  -0.003711974242 0.03681626  0.00028895  0.0145863 0.0000
  6  -2155.9004451023  -0.000366109126 0.01426935  0.00012343  0.0100248 0.0000
  7  -2155.9005601257  -0.000115023351 0.00320738  0.00003813  0.0039283 0.0000
  8  -2155.9005891250  -0.000028999355 0.00187064  0.00002018  0.0010788 0.0000
  9  -2155.9005951953  -0.000006070298 0.00376681  0.00003460  0.0006816 0.0000
 10  -2155.9005987791  -0.000003583840 0.00076131  0.00000576  0.0002478 0.0000
 11  -2155.9005989259  -0.000000146792 0.00031016  0.00000249  0.0000993 0.0000
 12  -2155.9005990005  -0.000000074596 0.00013899  0.00000083  0.0000759 0.0000
 13  -2155.9005990191  -0.000000018599 0.00007345  0.00000058  0.0000589 0.0000
 14  -2155.9005990191   0.000000000006 0.00005107  0.00000042  0.0000304 0.0000
 15  -2155.9005990345  -0.000000015335 0.00003705  0.00000032  0.0000130 0.0000
 16  -2155.9005990119   0.000000022568 0.00002442  0.00000026  0.0000183 0.0000
 17  -2155.9005990105   0.000000001405 0.00006467  0.00000050  0.0000021 0.0000
                            ***DIIS convergence achieved***

               *****************************************************
               *                     SUCCESS                       *
               *           SCF CONVERGED AFTER  18 CYCLES          *
               *****************************************************


----------------
TOTAL SCF ENERGY
----------------

Total Energy       :        -2155.90059902 Eh          -58665.03777 eV

Components:
Nuclear Repulsion  :          895.33670135 Eh           24363.35025 eV
Electronic Energy  :        -3051.23730038 Eh          -83028.38802 eV
One Electron Energy:        -4781.96282649 Eh         -130123.82388 eV
Two Electron Energy:         1730.72552612 Eh           47095.43585 eV

Virial components:
Potential Energy   :        -4308.30021365 Eh         -117234.80892 eV
Kinetic Energy     :         2152.39961463 Eh           58569.77114 eV
Virial Ratio       :            2.00162655


DFT components:
N(Alpha)           :       56.000023866901 electrons
N(Beta)            :       55.000000397203 electrons
N(Total)           :      111.000024264104 electrons
E(X)               :     -133.825629453437 Eh       
E(C)               :       -4.116167502050 Eh       
E(XC)              :     -137.941796955487 Eh       
DFET-embed. en.    :        0.000000000000 Eh       

---------------
SCF CONVERGENCE
---------------

  Last Energy change         ...   -1.2016e-08  Tolerance :   1.0000e-08
  Last MAX-Density change    ...    2.3518e-05  Tolerance :   1.0000e-07
  Last RMS-Density change    ...    2.0142e-07  Tolerance :   5.0000e-09
  Last DIIS Error            ...    9.6509e-07  Tolerance :   5.0000e-07

             **** THE GBW FILE WAS UPDATED (1_M0005.gbw) ****
             **** DENSITY 1_M0005.scfp WAS UPDATED ****
             **** ENERGY FILE WAS UPDATED (1_M0005.en.tmp) ****
----------------------
UHF SPIN CONTAMINATION
----------------------

Warning: in a DFT calculation there is little theoretical justification to 
         calculate <S**2> as in Hartree-Fock theory. We will do it anyways
         but you should keep in mind that the values have only limited relevance

Expectation value of <S**2>     :     0.751977
Ideal value S*(S+1) for S=0.5   :     0.750000
Deviation                       :     0.001977

             **** THE GBW FILE WAS UPDATED (1_M0005.gbw) ****
             **** DENSITY 1_M0005.scfp WAS UPDATED ****
----------------
ORBITAL ENERGIES
----------------
                 SPIN UP ORBITALS
  NO   OCC          E(Eh)            E(eV) 
   0   1.0000    -321.403262     -8745.8274 
   1   1.0000     -38.184691     -1039.0583 
   2   1.0000     -33.477460      -910.9680 
   3   1.0000     -33.473300      -910.8548 
   4   1.0000     -33.473208      -910.8523 
   5   1.0000     -18.620459      -506.6885 
   6   1.0000     -18.530207      -504.2326 
   7   1.0000     -13.939430      -379.3112 
   8   1.0000      -9.824489      -267.3379 
   9   1.0000      -9.781396      -266.1653 
  10   1.0000      -9.775447      -266.0034 
  11   1.0000      -9.761173      -265.6150 
  12   1.0000      -9.743219      -265.1265 
  13   1.0000      -9.737385      -264.9677 
  14   1.0000      -9.735509      -264.9167 
  15   1.0000      -9.718102      -264.4430 
  16   1.0000      -4.018325      -109.3442 
  17   1.0000      -2.567103       -69.8544 
  18   1.0000      -2.546951       -69.3061 
  19   1.0000      -2.546764       -69.3010 
  20   1.0000      -0.816203       -22.2100 
  21   1.0000      -0.782457       -21.2917 
  22   1.0000      -0.728366       -19.8199 
  23   1.0000      -0.630517       -17.1572 
  24   1.0000      -0.581911       -15.8346 
  25   1.0000      -0.518190       -14.1007 
  26   1.0000      -0.511839       -13.9278 
  27   1.0000      -0.457014       -12.4360 
  28   1.0000      -0.414298       -11.2736 
  29   1.0000      -0.397053       -10.8044 
  30   1.0000      -0.384995       -10.4762 
  31   1.0000      -0.347557        -9.4575 
  32   1.0000      -0.342962        -9.3325 
  33   1.0000      -0.310476        -8.4485 
  34   1.0000      -0.303048        -8.2464 
  35   1.0000      -0.271482        -7.3874 
  36   1.0000      -0.258321        -7.0293 
  37   1.0000      -0.248916        -6.7734 
  38   1.0000      -0.235967        -6.4210 
  39   1.0000      -0.221258        -6.0207 
  40   1.0000      -0.217529        -5.9193 
  41   1.0000      -0.197881        -5.3846 
  42   1.0000      -0.193467        -5.2645 
  43   1.0000      -0.171424        -4.6647 
  44   1.0000      -0.149518        -4.0686 
  45   1.0000      -0.148997        -4.0544 
  46   1.0000      -0.128952        -3.5090 
  47   1.0000      -0.118891        -3.2352 
  48   1.0000      -0.117711        -3.2031 
  49   1.0000      -0.114801        -3.1239 
  50   1.0000      -0.113672        -3.0932 
  51   1.0000      -0.095800        -2.6069 
  52   1.0000      -0.059702        -1.6246 
  53   1.0000      -0.036906        -1.0043 
  54   1.0000      -0.006638        -0.1806 
  55   1.0000      -0.003223        -0.0877 
  56   0.0000       0.096731         2.6322 
  57   0.0000       0.102715         2.7950 
  58   0.0000       0.112457         3.0601 
  59   0.0000       0.120674         3.2837 
  60   0.0000       0.132134         3.5955 
  61   0.0000       0.141318         3.8455 
  62   0.0000       0.143464         3.9039 
  63   0.0000       0.163637         4.4528 
  64   0.0000       0.168779         4.5927 
  65   0.0000       0.177189         4.8216 
  66   0.0000       0.183493         4.9931 
  67   0.0000       0.187427         5.1002 
  68   0.0000       0.197153         5.3648 
  69   0.0000       0.210801         5.7362 
  70   0.0000       0.216830         5.9003 
  71   0.0000       0.226209         6.1555 
  72   0.0000       0.234634         6.3847 
  73   0.0000       0.244486         6.6528 
  74   0.0000       0.251844         6.8530 
  75   0.0000       0.264458         7.1963 
  76   0.0000       0.266312         7.2467 
  77   0.0000       0.281774         7.6674 
  78   0.0000       0.285986         7.7821 
  79   0.0000       0.296843         8.0775 
  80   0.0000       0.302794         8.2395 
  81   0.0000       0.305685         8.3181 
  82   0.0000       0.317667         8.6442 
  83   0.0000       0.332002         9.0342 
  84   0.0000       0.345015         9.3883 
  85   0.0000       0.350229         9.5302 
  86   0.0000       0.351718         9.5707 
  87   0.0000       0.364465         9.9176 
  88   0.0000       0.371808        10.1174 
  89   0.0000       0.379708        10.3324 
  90   0.0000       0.382952        10.4207 
  91   0.0000       0.392298        10.6750 
  92   0.0000       0.405328        11.0295 
  93   0.0000       0.423261        11.5175 
  94   0.0000       0.426520        11.6062 
  95   0.0000       0.433795        11.8042 
  96   0.0000       0.441974        12.0267 
  97   0.0000       0.447601        12.1798 
  98   0.0000       0.455652        12.3989 
  99   0.0000       0.461290        12.5523 
 100   0.0000       0.466558        12.6957 
 101   0.0000       0.467646        12.7253 
 102   0.0000       0.478783        13.0284 
 103   0.0000       0.487292        13.2599 
 104   0.0000       0.495968        13.4960 
 105   0.0000       0.499441        13.5905 
 106   0.0000       0.503282        13.6950 
 107   0.0000       0.510562        13.8931 
 108   0.0000       0.517744        14.0885 
 109   0.0000       0.523379        14.2419 
 110   0.0000       0.534552        14.5459 
 111   0.0000       0.540752        14.7146 
 112   0.0000       0.549798        14.9608 
 113   0.0000       0.556780        15.1507 
 114   0.0000       0.564079        15.3494 
 115   0.0000       0.565492        15.3878 
 116   0.0000       0.575654        15.6643 
 117   0.0000       0.581202        15.8153 
 118   0.0000       0.599775        16.3207 
 119   0.0000       0.604617        16.4525 
 120   0.0000       0.620595        16.8873 
 121   0.0000       0.629546        17.1308 
 122   0.0000       0.645393        17.5620 
 123   0.0000       0.653726        17.7888 
 124   0.0000       0.658603        17.9215 
 125   0.0000       0.666084        18.1251 
 126   0.0000       0.681246        18.5376 
 127   0.0000       0.707048        19.2398 
 128   0.0000       0.719249        19.5718 
 129   0.0000       0.731538        19.9062 
 130   0.0000       0.740204        20.1420 
 131   0.0000       0.742181        20.1958 
 132   0.0000       0.753404        20.5012 
 133   0.0000       0.758194        20.6315 
 134   0.0000       0.765210        20.8224 
 135   0.0000       0.788626        21.4596 
 136   0.0000       0.804885        21.9020 
 137   0.0000       0.817244        22.2383 
 138   0.0000       0.828221        22.5370 
 139   0.0000       0.828308        22.5394 
 140   0.0000       0.842069        22.9139 
 141   0.0000       0.854172        23.2432 
 142   0.0000       0.871562        23.7164 
 143   0.0000       0.884499        24.0685 
 144   0.0000       0.897354        24.4182 
 145   0.0000       0.901074        24.5195 
 146   0.0000       0.919192        25.0125 
 147   0.0000       0.938227        25.5305 
 148   0.0000       0.943849        25.6834 
 149   0.0000       0.950244        25.8575 
 150   0.0000       0.965039        26.2600 
 151   0.0000       0.970874        26.4188 
 152   0.0000       0.980917        26.6921 
 153   0.0000       0.988726        26.9046 
 154   0.0000       1.011168        27.5153 
 155   0.0000       1.015175        27.6243 
 156   0.0000       1.041709        28.3463 
 157   0.0000       1.050053        28.5734 
 158   0.0000       1.063553        28.9407 
 159   0.0000       1.093962        29.7682 
 160   0.0000       1.101902        29.9843 
 161   0.0000       1.125508        30.6266 
 162   0.0000       1.140546        31.0358 
 163   0.0000       1.153267        31.3820 
 164   0.0000       1.161833        31.6151 
 165   0.0000       1.184220        32.2243 
 166   0.0000       1.188203        32.3326 
 167   0.0000       1.202403        32.7191 
 168   0.0000       1.216587        33.1050 
 169   0.0000       1.234750        33.5992 
 170   0.0000       1.253718        34.1154 
 171   0.0000       1.276507        34.7355 
 172   0.0000       1.288375        35.0585 
 173   0.0000       1.295356        35.2484 
 174   0.0000       1.304274        35.4911 
 175   0.0000       1.314800        35.7775 
 176   0.0000       1.323826        36.0231 
 177   0.0000       1.339157        36.4403 
 178   0.0000       1.354545        36.8590 
 179   0.0000       1.363311        37.0976 
 180   0.0000       1.390927        37.8491 
 181   0.0000       1.392665        37.8963 
 182   0.0000       1.413608        38.4662 
 183   0.0000       1.431550        38.9544 
 184   0.0000       1.447748        39.3952 
 185   0.0000       1.449544        39.4441 
 186   0.0000       1.468655        39.9641 
 187   0.0000       1.485934        40.4343 
 188   0.0000       1.500881        40.8410 
 189   0.0000       1.540728        41.9254 
 190   0.0000       1.543351        41.9967 
 191   0.0000       1.556224        42.3470 
 192   0.0000       1.583461        43.0882 
 193   0.0000       1.592246        43.3272 
 194   0.0000       1.601269        43.5728 
 195   0.0000       1.611972        43.8640 
 196   0.0000       1.614939        43.9447 
 197   0.0000       1.626181        44.2506 
 198   0.0000       1.642016        44.6815 
 199   0.0000       1.668268        45.3959 
 200   0.0000       1.677016        45.6339 
 201   0.0000       1.698058        46.2065 
 202   0.0000       1.722687        46.8767 
 203   0.0000       1.737871        47.2899 
 204   0.0000       1.765816        48.0503 
 205   0.0000       1.774618        48.2898 
 206   0.0000       1.793145        48.7940 
 207   0.0000       1.809283        49.2331 
 208   0.0000       1.810839        49.2754 
 209   0.0000       1.817242        49.4497 
 210   0.0000       1.830411        49.8080 
 211   0.0000       1.846058        50.2338 
 212   0.0000       1.870573        50.9009 
 213   0.0000       1.878060        51.1046 
 214   0.0000       1.905707        51.8569 
 215   0.0000       1.909678        51.9650 
 216   0.0000       1.923245        52.3342 
 217   0.0000       1.930221        52.5240 
 218   0.0000       1.942272        52.8519 
 219   0.0000       1.951941        53.1150 
 220   0.0000       1.982602        53.9493 
 221   0.0000       1.994937        54.2850 
 222   0.0000       2.024614        55.0925 
 223   0.0000       2.033451        55.3330 
 224   0.0000       2.035293        55.3831 
 225   0.0000       2.050991        55.8103 
 226   0.0000       2.069368        56.3104 
 227   0.0000       2.079516        56.5865 
 228   0.0000       2.095521        57.0220 
 229   0.0000       2.107504        57.3481 
 230   0.0000       2.130031        57.9611 
 231   0.0000       2.132244        58.0213 
 232   0.0000       2.152527        58.5732 
 233   0.0000       2.179292        59.3016 
 234   0.0000       2.200253        59.8719 
 235   0.0000       2.219705        60.4013 
 236   0.0000       2.226678        60.5910 
 237   0.0000       2.242007        61.0081 
 238   0.0000       2.251927        61.2780 
 239   0.0000       2.269458        61.7551 
 240   0.0000       2.292575        62.3841 
 241   0.0000       2.310189        62.8634 
 242   0.0000       2.331951        63.4556 
 243   0.0000       2.341992        63.7288 
 244   0.0000       2.356219        64.1160 
 245   0.0000       2.381259        64.7974 
 246   0.0000       2.392674        65.1080 
 247   0.0000       2.423176        65.9380 
 248   0.0000       2.451265        66.7023 
 249   0.0000       2.466794        67.1249 
 250   0.0000       2.473316        67.3023 
 251   0.0000       2.498291        67.9820 
 252   0.0000       2.512905        68.3796 
 253   0.0000       2.516390        68.4744 
 254   0.0000       2.534436        68.9655 
 255   0.0000       2.540145        69.1209 
 256   0.0000       2.565360        69.8070 
 257   0.0000       2.579922        70.2032 
 258   0.0000       2.589035        70.4512 
 259   0.0000       2.602542        70.8188 
 260   0.0000       2.631546        71.6080 
 261   0.0000       2.644937        71.9724 
 262   0.0000       2.656772        72.2944 
 263   0.0000       2.668564        72.6153 
 264   0.0000       2.675548        72.8054 
 265   0.0000       2.681903        72.9783 
 266   0.0000       2.705112        73.6098 
 267   0.0000       2.716978        73.9327 
 268   0.0000       2.732475        74.3544 
 269   0.0000       2.734209        74.4016 
 270   0.0000       2.749358        74.8138 
 271   0.0000       2.764652        75.2300 
 272   0.0000       2.775743        75.5318 
 273   0.0000       2.795620        76.0727 
 274   0.0000       2.817593        76.6706 
 275   0.0000       2.840377        77.2906 
 276   0.0000       2.850322        77.5612 
 277   0.0000       2.864139        77.9372 
 278   0.0000       2.879130        78.3451 
 279   0.0000       2.883778        78.4716 
 280   0.0000       2.892623        78.7123 
 281   0.0000       2.910533        79.1996 
 282   0.0000       2.925190        79.5985 
 283   0.0000       2.940645        80.0190 
 284   0.0000       2.953894        80.3795 
 285   0.0000       2.968584        80.7793 
 286   0.0000       2.990842        81.3849 
 287   0.0000       3.000035        81.6351 
 288   0.0000       3.016443        82.0816 
 289   0.0000       3.034166        82.5639 
 290   0.0000       3.041009        82.7501 
 291   0.0000       3.067290        83.4652 
 292   0.0000       3.075541        83.6897 
 293   0.0000       3.084470        83.9327 
 294   0.0000       3.098942        84.3265 
 295   0.0000       3.109669        84.6184 
 296   0.0000       3.145536        85.5944 
 297   0.0000       3.154439        85.8366 
 298   0.0000       3.166579        86.1670 
 299   0.0000       3.175639        86.4135 
 300   0.0000       3.188397        86.7607 
 301   0.0000       3.201553        87.1187 
 302   0.0000       3.215026        87.4853 
 303   0.0000       3.238104        88.1133 
 304   0.0000       3.238804        88.1323 
 305   0.0000       3.251315        88.4728 
 306   0.0000       3.257673        88.6458 
 307   0.0000       3.287642        89.4613 
 308   0.0000       3.291562        89.5680 
 309   0.0000       3.304997        89.9335 
 310   0.0000       3.326401        90.5160 
 311   0.0000       3.339473        90.8717 
 312   0.0000       3.352692        91.2314 
 313   0.0000       3.360737        91.4503 
 314   0.0000       3.368914        91.6728 
 315   0.0000       3.385868        92.1341 
 316   0.0000       3.401994        92.5730 
 317   0.0000       3.409267        92.7709 
 318   0.0000       3.437725        93.5452 
 319   0.0000       3.442205        93.6672 
 320   0.0000       3.449383        93.8625 
 321   0.0000       3.471079        94.4529 
 322   0.0000       3.481407        94.7339 
 323   0.0000       3.492911        95.0469 
 324   0.0000       3.506603        95.4195 
 325   0.0000       3.513128        95.5971 
 326   0.0000       3.527590        95.9906 
 327   0.0000       3.543025        96.4106 
 328   0.0000       3.551386        96.6381 
 329   0.0000       3.560334        96.8816 
 330   0.0000       3.578871        97.3860 
 331   0.0000       3.584049        97.5269 
 332   0.0000       3.594520        97.8119 
 333   0.0000       3.609437        98.2178 
 334   0.0000       3.623673        98.6052 
 335   0.0000       3.658571        99.5548 
 336   0.0000       3.665418        99.7411 
 337   0.0000       3.672147        99.9242 
 338   0.0000       3.693784       100.5130 
 339   0.0000       3.731700       101.5447 
 340   0.0000       3.744867       101.9030 
 341   0.0000       3.754685       102.1702 
 342   0.0000       3.788557       103.0919 
 343   0.0000       3.791743       103.1786 
 344   0.0000       3.804940       103.5377 
 345   0.0000       3.821462       103.9873 
 346   0.0000       3.872885       105.3866 
 347   0.0000       3.892211       105.9124 
 348   0.0000       3.919893       106.6657 
 349   0.0000       3.928498       106.8999 
 350   0.0000       3.950452       107.4973 
 351   0.0000       3.980859       108.3247 
 352   0.0000       4.006920       109.0338 
 353   0.0000       4.018776       109.3565 
 354   0.0000       4.060247       110.4849 
 355   0.0000       4.064797       110.6087 
 356   0.0000       4.099990       111.5664 
 357   0.0000       4.117740       112.0494 
 358   0.0000       4.140169       112.6597 
 359   0.0000       4.159810       113.1942 
 360   0.0000       4.178479       113.7022 
 361   0.0000       4.204210       114.4024 
 362   0.0000       4.235697       115.2592 
 363   0.0000       4.247634       115.5840 
 364   0.0000       4.263181       116.0071 
 365   0.0000       4.273370       116.2843 
 366   0.0000       4.276439       116.3678 
 367   0.0000       4.303436       117.1024 
 368   0.0000       4.324555       117.6771 
 369   0.0000       4.346012       118.2610 
 370   0.0000       4.378923       119.1565 
 371   0.0000       4.409744       119.9952 
 372   0.0000       4.453802       121.1941 
 373   0.0000       4.487461       122.1100 
 374   0.0000       4.511407       122.7616 
 375   0.0000       4.564021       124.1933 
 376   0.0000       4.600052       125.1738 
 377   0.0000       4.638231       126.2127 
 378   0.0000       4.658810       126.7727 
 379   0.0000       4.694760       127.7509 
 380   0.0000       4.732189       128.7694 
 381   0.0000       4.755158       129.3944 
 382   0.0000       4.812507       130.9550 
 383   0.0000       4.823785       131.2619 
 384   0.0000       4.866949       132.4364 
 385   0.0000       4.871607       132.5632 
 386   0.0000       4.890711       133.0830 
 387   0.0000       4.912915       133.6872 
 388   0.0000       4.947295       134.6227 
 389   0.0000       4.975826       135.3991 
 390   0.0000       4.985994       135.6758 
 391   0.0000       5.032674       136.9460 
 392   0.0000       5.057588       137.6240 
 393   0.0000       5.111225       139.0835 
 394   0.0000       5.131619       139.6385 
 395   0.0000       5.155618       140.2915 
 396   0.0000       5.250796       142.8814 
 397   0.0000       5.279250       143.6557 
 398   0.0000       5.314721       144.6209 
 399   0.0000       5.334305       145.1538 
 400   0.0000       5.336756       145.2205 
 401   0.0000       5.404314       147.0589 
 402   0.0000       5.420261       147.4928 
 403   0.0000       5.440383       148.0404 
 404   0.0000       5.490026       149.3912 
 405   0.0000       5.496603       149.5702 
 406   0.0000       5.617689       152.8651 
 407   0.0000       5.636077       153.3655 
 408   0.0000       5.640438       153.4841 
 409   0.0000       5.652311       153.8072 
 410   0.0000       5.748093       156.4136 
 411   0.0000       5.750173       156.4702 
 412   0.0000       5.758241       156.6897 
 413   0.0000       5.784289       157.3985 
 414   0.0000       5.809220       158.0769 
 415   0.0000       5.836420       158.8171 
 416   0.0000       5.938105       161.5841 
 417   0.0000       6.053859       164.7339 
 418   0.0000       6.066779       165.0854 
 419   0.0000       6.112907       166.3407 
 420   0.0000       6.122869       166.6117 
 421   0.0000       6.323075       172.0596 
 422   0.0000       6.428928       174.9400 
 423   0.0000       6.431769       175.0173 
 424   0.0000       6.464682       175.9129 
 425   0.0000       6.589873       179.3196 
 426   0.0000       6.689967       182.0432 
 427   0.0000       6.712678       182.6613 
 428   0.0000       6.765126       184.0884 
 429   0.0000       6.843220       186.2135 
 430   0.0000       6.886217       187.3835 
 431   0.0000       7.041516       191.6094 
 432   0.0000       7.095111       193.0678 
 433   0.0000       7.121954       193.7982 
 434   0.0000       7.309260       198.8951 
 435   0.0000      22.153965       602.8400 
 436   0.0000      22.269627       605.9874 
 437   0.0000      22.401988       609.5891 
 438   0.0000      22.593077       614.7889 
 439   0.0000      22.649939       616.3362 
 440   0.0000      22.829752       621.2291 
 441   0.0000      22.907485       623.3444 
 442   0.0000      23.406958       636.9357 
 443   0.0000      31.838310       866.3644 
 444   0.0000      43.631216      1187.2657 
 445   0.0000      43.840424      1192.9586 

                 SPIN DOWN ORBITALS
  NO   OCC          E(Eh)            E(eV) 
   0   1.0000    -321.402742     -8745.8132 
   1   1.0000     -38.181692     -1038.9767 
   2   1.0000     -33.472791      -910.8409 
   3   1.0000     -33.471925      -910.8174 
   4   1.0000     -33.471895      -910.8166 
   5   1.0000     -18.620448      -506.6881 
   6   1.0000     -18.530183      -504.2319 
   7   1.0000     -13.937307      -379.2534 
   8   1.0000      -9.824451      -267.3369 
   9   1.0000      -9.781351      -266.1641 
[...]
      f-1     :     0.003618
      f+2     :     0.005677
      f-2     :     0.004871
      f+3     :     0.007919
      f-3     :     0.012218
  7 C s       :     2.764509  s :     2.764509
      pz      :     0.956106  p :     2.977058
      px      :     1.029501
      py      :     0.991451
      dz2     :     0.028986  d :     0.404763
      dxz     :     0.076668
      dyz     :     0.042670
      dx2y2   :     0.106611
      dxy     :     0.149828
      f0      :     0.002974  f :     0.041654
      f+1     :     0.004192
      f-1     :     0.003334
      f+2     :     0.007409
      f-2     :     0.002982
      f+3     :     0.007751
      f-3     :     0.013013
  8 C s       :     2.732533  s :     2.732533
      pz      :     0.889715  p :     2.799713
      px      :     0.990722
      py      :     0.919275
      dz2     :     0.056296  d :     0.666927
      dxz     :     0.115999
      dyz     :     0.096271
      dx2y2   :     0.190622
      dxy     :     0.207739
      f0      :     0.006463  f :     0.092802
      f+1     :     0.006855
      f-1     :     0.007595
      f+2     :     0.006965
      f-2     :     0.017031
      f+3     :     0.019192
      f-3     :     0.028701
  9 C s       :     2.777220  s :     2.777220
      pz      :     0.984562  p :     3.009106
      px      :     1.038402
      py      :     0.986142
      dz2     :     0.030777  d :     0.360075
      dxz     :     0.065637
      dyz     :     0.022918
      dx2y2   :     0.113822
      dxy     :     0.126922
      f0      :     0.003017  f :     0.039487
      f+1     :     0.004358
      f-1     :     0.003452
      f+2     :     0.004996
      f-2     :     0.004007
      f+3     :     0.007887
      f-3     :     0.011768
 10 C s       :     2.731556  s :     2.731556
      pz      :     0.844811  p :     2.800900
      px      :     0.931141
      py      :     1.024948
      dz2     :     0.059739  d :     0.758301
      dxz     :     0.164527
      dyz     :     0.064760
      dx2y2   :     0.202940
      dxy     :     0.266335
      f0      :     0.006164  f :     0.100602
      f+1     :     0.010406
      f-1     :     0.004381
      f+2     :     0.017903
      f-2     :     0.007598
      f+3     :     0.016934
      f-3     :     0.037217
 11 H s       :     0.809015  s :     0.809015
      pz      :     0.015902  p :     0.056948
      px      :     0.014262
      py      :     0.026783
 12 H s       :     0.811498  s :     0.811498
      pz      :     0.019927  p :     0.057095
      px      :     0.013104
      py      :     0.024064
 13 H s       :     0.800420  s :     0.800420
      pz      :     0.018168  p :     0.059484
      px      :     0.012667
      py      :     0.028648
 14 H s       :     0.801423  s :     0.801423
      pz      :     0.022408  p :     0.059312
      px      :     0.010296
      py      :     0.026609
 15 H s       :     0.809780  s :     0.809780
      pz      :     0.015912  p :     0.058743
      px      :     0.014457
      py      :     0.028373
 16 H s       :     0.815263  s :     0.815263
      pz      :     0.015825  p :     0.057654
      px      :     0.017323
      py      :     0.024507
 17 H s       :     0.815741  s :     0.815741
      pz      :     0.015988  p :     0.059053
      px      :     0.014931
      py      :     0.028134
 18 H s       :     0.725834  s :     0.725834
      pz      :     0.034784  p :     0.104942
      px      :     0.025166
      py      :     0.044992
 19 H s       :     0.725502  s :     0.725502
      pz      :     0.042152  p :     0.104910
      px      :     0.021606
      py      :     0.041152
 20 H s       :     0.644293  s :     0.644293
      pz      :     0.034007  p :     0.166902
      px      :     0.064858
      py      :     0.068037
 21 Cus       :     7.128266  s :     7.128266
      pz      :     4.135122  p :    12.243747
      px      :     4.096312
      py      :     4.012313
      dz2     :     1.998103  d :     9.979090
      dxz     :     1.964269
      dyz     :     2.011720
      dx2y2   :     2.001918
      dxy     :     2.003079
      f0      :     0.000004  f :     0.000062
      f+1     :     0.000030
      f-1     :     0.000004
      f+2     :     0.000016
      f-2     :     0.000006
      f+3     :     0.000002
      f-3     :     0.000001

SPIN
  0 O s       :     0.000034  s :     0.000034
      pz      :     0.002466  p :     0.002427
      px      :    -0.000003
      py      :    -0.000036
      dz2     :     0.000007  d :     0.000131
      dxz     :     0.000064
      dyz     :     0.000063
      dx2y2   :    -0.000002
      dxy     :    -0.000001
      f0      :     0.000003  f :     0.000009
      f+1     :     0.000000
      f-1     :     0.000000
      f+2     :     0.000000
      f-2     :     0.000005
      f+3     :     0.000000
      f-3     :    -0.000000
  1 O s       :     0.000147  s :     0.000147
      pz      :     0.011656  p :     0.012412
      px      :     0.000516
      py      :     0.000239
      dz2     :     0.000013  d :     0.000102
      dxz     :     0.000098
      dyz     :     0.000002
      dx2y2   :    -0.000006
      dxy     :    -0.000005
      f0      :     0.000001  f :     0.000005
      f+1     :    -0.000000
      f-1     :     0.000000
      f+2     :     0.000004
      f-2     :     0.000000
      f+3     :    -0.000000
      f-3     :    -0.000000
  2 N s       :     0.023826  s :     0.023826
      pz      :     0.030437  p :     0.055540
      px      :     0.022622
      py      :     0.002481
      dz2     :     0.000230  d :     0.000527
      dxz     :     0.000884
      dyz     :    -0.000371
      dx2y2   :    -0.000196
      dxy     :    -0.000019
      f0      :    -0.000018  f :     0.000216
      f+1     :     0.000064
      f-1     :     0.000011
      f+2     :     0.000140
      f-2     :    -0.000008
      f+3     :     0.000033
      f-3     :    -0.000007
  3 C s       :     0.000612  s :     0.000612
      pz      :    -0.000023  p :     0.002931
      px      :     0.002896
      py      :     0.000058
      dz2     :     0.000761  d :     0.001814
      dxz     :     0.000419
      dyz     :     0.000047
      dx2y2   :     0.000524
      dxy     :     0.000065
      f0      :     0.000145  f :     0.000246
      f+1     :     0.000019
      f-1     :     0.000004
      f+2     :     0.000071
      f-2     :     0.000001
      f+3     :     0.000005
      f-3     :     0.000001
  4 C s       :     0.000358  s :     0.000358
      pz      :     0.004456  p :     0.007179
      px      :     0.002605
      py      :     0.000118
      dz2     :    -0.000009  d :     0.000051
      dxz     :    -0.000032
      dyz     :     0.000109
      dx2y2   :    -0.000006
      dxy     :    -0.000011
      f0      :    -0.000009  f :    -0.000011
      f+1     :    -0.000005
      f-1     :    -0.000005
      f+2     :     0.000016
      f-2     :    -0.000005
      f+3     :     0.000001
      f-3     :    -0.000003
  5 C s       :     0.000525  s :     0.000525
      pz      :    -0.000619  p :     0.001788
      px      :     0.002429
      py      :    -0.000022
      dz2     :     0.000224  d :     0.002397
      dxz     :     0.001403
      dyz     :     0.000005
      dx2y2   :     0.000727
      dxy     :     0.000038
      f0      :     0.000172  f :     0.000740
      f+1     :     0.000270
      f-1     :     0.000009
      f+2     :     0.000213
      f-2     :     0.000004
      f+3     :     0.000048
      f-3     :     0.000024
  6 C s       :    -0.000069  s :    -0.000069
      pz      :    -0.001370  p :    -0.001590
      px      :    -0.000133
      py      :    -0.000087
      dz2     :     0.000132  d :     0.001140
      dxz     :     0.000535
      dyz     :     0.000112
      dx2y2   :     0.000235
      dxy     :     0.000126
      f0      :     0.000007  f :     0.000156
      f+1     :     0.000008
      f-1     :     0.000008
      f+2     :     0.000062
      f-2     :     0.000036
      f+3     :     0.000009
      f-3     :     0.000026
  7 C s       :     0.000004  s :     0.000004
      pz      :     0.001590  p :     0.001492
      px      :    -0.000099
      py      :     0.000000
      dz2     :     0.000117  d :     0.001457
      dxz     :     0.000818
      dyz     :     0.000149
      dx2y2   :     0.000244
      dxy     :     0.000130
      f0      :     0.000003  f :     0.000132
      f+1     :     0.000011
      f-1     :    -0.000001
      f+2     :     0.000068
      f-2     :     0.000010
      f+3     :     0.000012
      f-3     :     0.000030
  8 C s       :     0.000111  s :     0.000111
      pz      :     0.004410  p :     0.004508
      px      :     0.000072
      py      :     0.000027
      dz2     :     0.000004  d :     0.000236
      dxz     :    -0.000136
      dyz     :     0.000367
      dx2y2   :    -0.000016
      dxy     :     0.000017
      f0      :    -0.000006  f :     0.000032
      f+1     :    -0.000002
      f-1     :    -0.000000
      f+2     :    -0.000003
      f-2     :     0.000049
      f+3     :    -0.000002
      f-3     :    -0.000004
  9 C s       :     0.000117  s :     0.000117
      pz      :     0.005225  p :     0.005344
      px      :     0.000034
      py      :     0.000085
      dz2     :    -0.000007  d :     0.000391
      dxz     :     0.000351
      dyz     :     0.000023
      dx2y2   :    -0.000005
      dxy     :     0.000029
      f0      :    -0.000008  f :     0.000034
      f+1     :    -0.000002
      f-1     :    -0.000004
      f+2     :     0.000035
      f-2     :     0.000014
      f+3     :     0.000002
      f-3     :    -0.000003
 10 C s       :    -0.000027  s :    -0.000027
      pz      :     0.002099  p :     0.001913
      px      :    -0.000084
      py      :    -0.000102
      dz2     :     0.000194  d :     0.002323
      dxz     :     0.001929
      dyz     :     0.000113
      dx2y2   :     0.000063
      dxy     :     0.000023
      f0      :     0.000011  f :     0.000299
      f+1     :     0.000032
      f-1     :    -0.000002
      f+2     :     0.000217
      f-2     :     0.000014
      f+3     :     0.000017
      f-3     :     0.000008
 11 H s       :     0.000258  s :     0.000258
      pz      :     0.000005  p :     0.000045
      px      :    -0.000001
      py      :     0.000041
 12 H s       :     0.000434  s :     0.000434
      pz      :     0.000037  p :     0.000084
      px      :     0.000003
      py      :     0.000044
 13 H s       :     0.000324  s :     0.000324
      pz      :     0.000048  p :     0.000205
      px      :     0.000006
      py      :     0.000152
 14 H s       :     0.000640  s :     0.000640
      pz      :     0.000108  p :     0.000214
      px      :     0.000011
      py      :     0.000095
 15 H s       :     0.000064  s :     0.000064
      pz      :    -0.000034  p :    -0.000045
      px      :    -0.000006
      py      :    -0.000005
 16 H s       :    -0.000020  s :    -0.000020
      pz      :     0.000045  p :     0.000047
      px      :    -0.000002
      py      :     0.000003
 17 H s       :    -0.000112  s :    -0.000112
      pz      :     0.000114  p :     0.000129
      px      :     0.000001
      py      :     0.000013
 18 H s       :     0.003316  s :     0.003316
      pz      :     0.002044  p :     0.003154
      px      :     0.000160
      py      :     0.000949
 19 H s       :     0.003268  s :     0.003268
      pz      :     0.002596  p :     0.003207
      px      :     0.000402
      py      :     0.000209
 20 H s       :    -0.000094  s :    -0.000094
      pz      :     0.000102  p :     0.000079
      px      :    -0.000009
      py      :    -0.000014
 21 Cus       :     0.617687  s :     0.617687
      pz      :     0.076838  p :     0.136547
      px      :     0.056538
      py      :     0.003171
      dz2     :     0.016062  d :     0.098549
      dxz     :     0.065676
      dyz     :     0.004252
      dx2y2   :     0.009686
      dxy     :     0.002873
      f0      :     0.000000  f :     0.000015
      f+1     :     0.000008
      f-1     :     0.000001
      f+2     :     0.000004
      f-2     :     0.000001
      f+3     :     0.000000
      f-3     :     0.000000


                      *****************************
                      * MAYER POPULATION ANALYSIS *
                      *****************************

  NA   - Mulliken gross atomic population
  ZA   - Total nuclear charge
  QA   - Mulliken gross atomic charge
  VA   - Mayer's total valence
  BVA  - Mayer's bonded valence
  FA   - Mayer's free valence

  ATOM       NA         ZA         QA         VA         BVA        FA
  0 O      8.4064     8.0000    -0.4064     2.0608     2.0608     0.0000
  1 O      8.5228     8.0000    -0.5228     2.0312     2.0310     0.0002
  2 N      7.3495     7.0000    -0.3495     3.1554     3.1515     0.0039
  3 C      6.2117     6.0000    -0.2117     3.8761     3.8761    -0.0000
  4 C      5.7254     6.0000     0.2746     3.5636     3.5635     0.0001
  5 C      6.1230     6.0000    -0.1230     3.7440     3.7439     0.0001
  6 C      6.3793     6.0000    -0.3793     4.0200     4.0200     0.0000
  7 C      6.2235     6.0000    -0.2235     3.9520     3.9520     0.0000
  8 C      5.8604     6.0000     0.1396     3.8471     3.8471     0.0000
  9 C      6.2392     6.0000    -0.2392     3.8946     3.8946     0.0001
 10 C      5.7976     6.0000     0.2024     4.0104     4.0103     0.0000
 11 H      0.9254     1.0000     0.0746     0.9849     0.9849     0.0000
 12 H      0.9330     1.0000     0.0670     0.9795     0.9795     0.0000
 13 H      0.8734     1.0000     0.1266     0.9836     0.9836     0.0000
 14 H      0.8785     1.0000     0.1215     0.9899     0.9899     0.0000
 15 H      0.9743     1.0000     0.0257     0.9937     0.9937     0.0000
 16 H      0.9777     1.0000     0.0223     0.9688     0.9688     0.0000
 17 H      0.9818     1.0000     0.0182     0.9993     0.9993     0.0000
 18 H      0.7743     1.0000     0.2257     0.9519     0.9519     0.0000
 19 H      0.7737     1.0000     0.2263     0.9516     0.9516     0.0000
 20 H      0.7176     1.0000     0.2824     0.9950     0.9950     0.0000
 21 Cu    29.3516    29.0000    -0.3516     1.3586     0.4932     0.8654

  Mayer bond orders larger than 0.100000
B(  0-O ,  8-C ) :   1.1943 B(  0-O , 20-H ) :   0.7594 B(  1-O , 10-C ) :   1.5632 
B(  1-O , 20-H ) :   0.2356 B(  2-N ,  5-C ) :   0.8946 B(  2-N , 18-H ) :   0.9182 
B(  2-N , 19-H ) :   0.9172 B(  2-N , 21-Cu) :   0.3871 B(  3-C ,  4-C ) :   0.9320 
B(  3-C ,  5-C ) :   0.9826 B(  3-C , 11-H ) :   0.9471 B(  3-C , 12-H ) :   0.9439 
B(  4-C ,  6-C ) :   1.2275 B(  4-C ,  7-C ) :   1.3642 B(  5-C , 13-H ) :   0.9559 
B(  5-C , 14-H ) :   0.9584 B(  6-C ,  8-C ) :   1.4677 B(  6-C , 15-H ) :   0.9915 
B(  7-C ,  9-C ) :   1.3657 B(  7-C , 16-H ) :   0.9829 B(  8-C , 10-C ) :   1.0208 
B(  9-C , 10-C ) :   1.3065 B(  9-C , 17-H ) :   0.9831 

-------
TIMINGS
-------

Total SCF time: 0 days 0 hours 0 min 18 sec 

Total time                  ....      18.757 sec
Sum of individual times     ....      18.112 sec  ( 96.6%)

Fock matrix formation       ....      14.581 sec  ( 77.7%)
  Split-RI-J                ....       3.997 sec  ( 27.4% of F)
  XC integration            ....      10.303 sec  ( 70.7% of F)
    Basis function eval.    ....       1.619 sec  ( 15.7% of XC)
    Density eval.           ....       4.420 sec  ( 42.9% of XC)
    XC-Functional eval.     ....       0.180 sec  (  1.7% of XC)
    XC-Potential eval.      ....       3.313 sec  ( 32.2% of XC)
Diagonalization             ....       1.817 sec  (  9.7%)
Density matrix formation    ....       0.066 sec  (  0.4%)
Population analysis         ....       0.101 sec  (  0.5%)
Initial guess               ....       0.143 sec  (  0.8%)
Orbital Transformation      ....       0.000 sec  (  0.0%)
Orbital Orthonormalization  ....       0.119 sec  (  0.6%)
DIIS solution               ....       0.733 sec  (  3.9%)
Grid generation             ....       0.671 sec  (  3.6%)

Maximum memory used throughout the entire SCF-calculation: 57.5 MB


-------------------------------------------------------------------------------
                          DFT DISPERSION CORRECTION                            
                                                                               
                              DFTD3 V3.1  Rev 1                                
                          USING Becke-Johnson damping                          
-------------------------------------------------------------------------------
The PBE functional is recognized
Active option DFTDOPT                   ...         4   

molecular C6(AA) [au] = 6343.633121 


            DFT-D V3
 parameters
 s6 scaling factor         :     1.0000 
 a1 scaling factor         :     0.4289 
 s8 scaling factor         :     0.7875 
 a2 scaling factor         :     4.4407 
 ad hoc parameters k1-k3   :    16.0000     1.3333    -4.0000 

 Edisp/kcal,au: -15.187910641784  -0.024203473652 
 E6   /kcal   : -10.612136757 
 E8   /kcal   :  -4.575773885 
 % E8         :  30.127737730 

-------------------------   ----------------
Dispersion correction           -0.024203474
-------------------------   ----------------


-------------------------   --------------------
FINAL SINGLE POINT ENERGY     -2156.005170425946
-------------------------   --------------------

                                *** OPTIMIZATION RUN DONE ***

                            ***************************************
                            *     ORCA property calculations      *
                            ***************************************

                                    ---------------------
                                    Active property flags
                                    ---------------------
   (+) Dipole Moment


------------------------------------------------------------------------------
                       ORCA ELECTRIC PROPERTIES CALCULATION
------------------------------------------------------------------------------

Dipole Moment Calculation                       ... on
Quadrupole Moment Calculation                   ... off
Polarizability Calculation                      ... off
GBWName                                         ... 5_M0006.gbw
Electron density                                ... 5_M0006.scfp
The origin for moment calculation is the CENTER OF MASS  = (-2.883075, -0.337533 -1.158200)

-------------
DIPOLE MOMENT
-------------
                                X             Y             Z
Electronic contribution:    -25.30858      -4.93638     -13.26580
Nuclear contribution   :     21.61535       4.94295      13.99342
                        -----------------------------------------
Total Dipole Moment    :     -3.69323       0.00657       0.72762
                        -----------------------------------------
Magnitude (a.u.)       :      3.76423
Magnitude (Debye)      :      9.56790



--------------------
Rotational spectrum 
--------------------
 
Rotational constants in cm-1:     0.065517     0.006594     0.006341 
Rotational constants in MHz :  1964.144623   197.676844   190.084925 

 Dipole components along the rotational axes: 
x,y,z [a.u.] :    -3.413674     0.799978     1.369768 
x,y,z [Debye]:    -8.676871     2.033383     3.481674 

 

Timings for individual modules:

Sum of individual times         ...      963.307 sec (=  16.055 min)
GTO integral calculation        ...       15.874 sec (=   0.265 min)   1.6 %
SCF iterations                  ...      749.609 sec (=  12.493 min)  77.8 %
SCF Gradient evaluation         ...      196.929 sec (=   3.282 min)  20.4 %
Geometry relaxation             ...        0.895 sec (=   0.015 min)   0.1 %



                             ****ORCA TERMINATED NORMALLY****
TOTAL RUN TIME: 0 days 1 hours 3 minutes 53 seconds 566 msec
