
                                 *****************
                                 * O   R   C   A *
                                 *****************

                                            #,                                       
                                            ###                                      
                                            ####                                     
                                            #####                                    
                                            ######                                   
                                           ########,                                 
                                     ,,################,,,,,                         
                               ,,#################################,,                 
                          ,,##########################################,,             
                       ,#########################################, ''#####,          
                    ,#############################################,,   '####,        
                  ,##################################################,,,,####,       
                ,###########''''           ''''###############################       
              ,#####''   ,,,,##########,,,,          '''####'''          '####       
            ,##' ,,,,###########################,,,                        '##       
           ' ,,###''''                  '''############,,,                           
         ,,##''                                '''############,,,,        ,,,,,,###''
      ,#''                                            '''#######################'''  
     '                                                          ''''####''''         
             ,#######,   #######,   ,#######,      ##                                
            ,#'     '#,  ##    ##  ,#'     '#,    #''#        ######   ,####,        
            ##       ##  ##   ,#'  ##            #'  '#       #        #'  '#        
            ##       ##  #######   ##           ,######,      #####,   #    #        
            '#,     ,#'  ##    ##  '#,     ,#' ,#      #,         ##   #,  ,#        
             '#######'   ##     ##  '#######'  #'      '#     #####' # '####'        



                  #######################################################
                  #                        -***-                        #
                  #          Department of theory and spectroscopy      #
                  #    Directorship and core code : Frank Neese         #
                  #        Max Planck Institute fuer Kohlenforschung    #
                  #                Kaiser Wilhelm Platz 1               #
                  #                 D-45470 Muelheim/Ruhr               #
                  #                      Germany                        #
                  #                                                     #
                  #                  All rights reserved                #
                  #                        -***-                        #
                  #######################################################


                         Program Version 5.0.2 -  RELEASE  -


 With contributions from (in alphabetic order):
   Daniel Aravena         : Magnetic Suceptibility
   Michael Atanasov       : Ab Initio Ligand Field Theory (pilot matlab implementation)
   Alexander A. Auer      : GIAO ZORA, VPT2 properties, NMR spectrum
   Ute Becker             : Parallelization
   Giovanni Bistoni       : ED, misc. LED, open-shell LED, HFLD
   Martin Brehm           : Molecular dynamics
   Dmytro Bykov           : SCF Hessian
   Vijay G. Chilkuri      : MRCI spin determinant printing, contributions to CSF-ICE
   Dipayan Datta          : RHF DLPNO-CCSD density
   Achintya Kumar Dutta   : EOM-CC, STEOM-CC
   Dmitry Ganyushin       : Spin-Orbit,Spin-Spin,Magnetic field MRCI
   Miquel Garcia          : C-PCM and meta-GGA Hessian, CC/C-PCM, Gaussian charge scheme
   Yang Guo               : DLPNO-NEVPT2, F12-NEVPT2, CIM, IAO-localization
   Andreas Hansen         : Spin unrestricted coupled pair/coupled cluster methods
   Benjamin Helmich-Paris : MC-RPA, TRAH-SCF, COSX integrals
   Lee Huntington         : MR-EOM, pCC
   Robert Izsak           : Overlap fitted RIJCOSX, COSX-SCS-MP3, EOM
   Marcus Kettner         : VPT2
   Christian Kollmar      : KDIIS, OOCD, Brueckner-CCSD(T), CCSD density, CASPT2, CASPT2-K
   Simone Kossmann        : Meta GGA functionals, TD-DFT gradient, OOMP2, MP2 Hessian
   Martin Krupicka        : Initial AUTO-CI
   Lucas Lang             : DCDCAS
   Marvin Lechner         : AUTO-CI (C++ implementation), FIC-MRCC
   Dagmar Lenk            : GEPOL surface, SMD
   Dimitrios Liakos       : Extrapolation schemes; Compound Job, initial MDCI parallelization
   Dimitrios Manganas     : Further ROCIS development; embedding schemes
   Dimitrios Pantazis     : SARC Basis sets
   Anastasios Papadopoulos: AUTO-CI, single reference methods and gradients
   Taras Petrenko         : DFT Hessian,TD-DFT gradient, ASA, ECA, R-Raman, ABS, FL, XAS/XES, NRVS
   Peter Pinski           : DLPNO-MP2, DLPNO-MP2 Gradient
   Christoph Reimann      : Effective Core Potentials
   Marius Retegan         : Local ZFS, SOC
   Christoph Riplinger    : Optimizer, TS searches, QM/MM, DLPNO-CCSD(T), (RO)-DLPNO pert. Triples
   Tobias Risthaus        : Range-separated hybrids, TD-DFT gradient, RPA, STAB
   Michael Roemelt        : Original ROCIS implementation
   Masaaki Saitow         : Open-shell DLPNO-CCSD energy and density
   Barbara Sandhoefer     : DKH picture change effects
   Avijit Sen             : IP-ROCIS
   Kantharuban Sivalingam : CASSCF convergence, NEVPT2, FIC-MRCI
   Bernardo de Souza      : ESD, SOC TD-DFT
   Georgi Stoychev        : AutoAux, RI-MP2 NMR, DLPNO-MP2 response
   Willem Van den Heuvel  : Paramagnetic NMR
   Boris Wezisla          : Elementary symmetry handling
   Frank Wennmohs         : Technical directorship


 We gratefully acknowledge several colleagues who have allowed us to
 interface, adapt or use parts of their codes:
   Stefan Grimme, W. Hujo, H. Kruse, P. Pracht,  : VdW corrections, initial TS optimization,
                  C. Bannwarth, S. Ehlert          DFT functionals, gCP, sTDA/sTD-DF
   Ed Valeev, F. Pavosevic, A. Kumar             : LibInt (2-el integral package), F12 methods
   Garnet Chan, S. Sharma, J. Yang, R. Olivares  : DMRG
   Ulf Ekstrom                                   : XCFun DFT Library
   Mihaly Kallay                                 : mrcc  (arbitrary order and MRCC methods)
   Jiri Pittner, Ondrej Demel                    : Mk-CCSD
   Frank Weinhold                                : gennbo (NPA and NBO analysis)
   Christopher J. Cramer and Donald G. Truhlar   : smd solvation model
   Lars Goerigk                                  : TD-DFT with DH, B97 family of functionals
   V. Asgeirsson, H. Jonsson                     : NEB implementation
   FAccTs GmbH                                   : IRC, NEB, NEB-TS, DLPNO-Multilevel, CI-OPT
                                                   MM, QMMM, 2- and 3-layer-ONIOM, Crystal-QMMM,
                                                   LR-CPCM, SF, NACMEs, symmetry and pop. for TD-DFT,
                                                   nearIR, NL-DFT gradient (VV10), updates on ESD,
                                                   ML-optimized integration grids
   S Lehtola, MJT Oliveira, MAL Marques          : LibXC Library
   Liviu Ungur et al                             : ANISO software


 Your calculation uses the libint2 library for the computation of 2-el integrals
 For citations please refer to: http://libint.valeyev.net

 Your ORCA version has been built with support for libXC version: 5.1.0
 For citations please refer to: https://tddft.org/programs/libxc/

 This ORCA versions uses:
   CBLAS   interface :  Fast vector & matrix operations
   LAPACKE interface :  Fast linear algebra routines
   SCALAPACK package :  Parallel linear algebra routines
   Shared memory     :  Shared parallel matrices
   BLAS/LAPACK       :  OpenBLAS 0.3.15  USE64BITINT DYNAMIC_ARCH NO_AFFINITY Haswell SINGLE_THREADED
        Core in use  :  Haswell
   Copyright (c) 2011-2014, The OpenBLAS Project


Your calculation utilizes the atom-pairwise dispersion correction
with the Becke-Johnson damping scheme (D3BJ)
Cite in your paper:
S.Grimme, S.Ehrlich, L.Goerigk, J Comput Chem, (2011), 32, 1456–1465 
S.Grimme, J.Antony, S.Ehrlich and H.Krieg, J.Chem.Phys., 132, (2010), 154104 
   

================================================================================

----- Orbital basis set information -----
Your calculation utilizes the basis: def2-TZVP
   F. Weigend and R. Ahlrichs, Phys. Chem. Chem. Phys. 7, 3297 (2005).

----- AuxJ basis set information -----
Your calculation utilizes the auxiliary basis: def2/J
   F. Weigend, Phys. Chem. Chem. Phys. 8, 1057 (2006).

================================================================================
                                        WARNINGS
                       Please study these warnings very carefully!
================================================================================


INFO   : the flag for use of the SHARK integral package has been found!

Your calculation utilizes the atom-pairwise dispersion correction
with the Becke-Johnson damping scheme (D3BJ)
Cite in your paper:
S.Grimme, S.Ehrlich, L.Goerigk, J Comput Chem, (2011), 32, 1456–1465 
S.Grimme, J.Antony, S.Ehrlich and H.Krieg, J.Chem.Phys., 132, (2010), 154104 
   

================================================================================

----- Orbital basis set information -----
Your calculation utilizes the basis: def2-TZVP
   F. Weigend and R. Ahlrichs, Phys. Chem. Chem. Phys. 7, 3297 (2005).

----- AuxJ basis set information -----
Your calculation utilizes the auxiliary basis: def2/J
   F. Weigend, Phys. Chem. Chem. Phys. 8, 1057 (2006).

================================================================================
                                        WARNINGS
                       Please study these warnings very carefully!
================================================================================


WARNING: MOInp is set but Guess=PModel. MOInp will be ignored!
         To read the initial guess from a file you must also specify
         'MORead' in the simple input or 'Guess MORead' in the %scf block


INFO   : the flag for use of the SHARK integral package has been found!

Your calculation utilizes the atom-pairwise dispersion correction
with the Becke-Johnson damping scheme (D3BJ)
Cite in your paper:
S.Grimme, S.Ehrlich, L.Goerigk, J Comput Chem, (2011), 32, 1456–1465 
S.Grimme, J.Antony, S.Ehrlich and H.Krieg, J.Chem.Phys., 132, (2010), 154104 
   

================================================================================

----- Orbital basis set information -----
Your calculation utilizes the basis: def2-TZVP
   F. Weigend and R. Ahlrichs, Phys. Chem. Chem. Phys. 7, 3297 (2005).

----- AuxJ basis set information -----
Your calculation utilizes the auxiliary basis: def2/J
   F. Weigend, Phys. Chem. Chem. Phys. 8, 1057 (2006).

================================================================================
                                        WARNINGS
                       Please study these warnings very carefully!
================================================================================


WARNING: MOInp is set but Guess=PModel. MOInp will be ignored!
         To read the initial guess from a file you must also specify
         'MORead' in the simple input or 'Guess MORead' in the %scf block


INFO   : the flag for use of the SHARK integral package has been found!

Your calculation utilizes the atom-pairwise dispersion correction
with the Becke-Johnson damping scheme (D3BJ)
Cite in your paper:
S.Grimme, S.Ehrlich, L.Goerigk, J Comput Chem, (2011), 32, 1456–1465 
S.Grimme, J.Antony, S.Ehrlich and H.Krieg, J.Chem.Phys., 132, (2010), 154104 
   

================================================================================

----- Orbital basis set information -----
Your calculation utilizes the basis: def2-TZVP
   F. Weigend and R. Ahlrichs, Phys. Chem. Chem. Phys. 7, 3297 (2005).

----- AuxJ basis set information -----
Your calculation utilizes the auxiliary basis: def2/J
   F. Weigend, Phys. Chem. Chem. Phys. 8, 1057 (2006).

================================================================================
                                        WARNINGS
                       Please study these warnings very carefully!
================================================================================


WARNING: MOInp is set but Guess=PModel. MOInp will be ignored!
         To read the initial guess from a file you must also specify
         'MORead' in the simple input or 'Guess MORead' in the %scf block


INFO   : the flag for use of the SHARK integral package has been found!

Your calculation utilizes the atom-pairwise dispersion correction
with the Becke-Johnson damping scheme (D3BJ)
Cite in your paper:
S.Grimme, S.Ehrlich, L.Goerigk, J Comput Chem, (2011), 32, 1456–1465 
S.Grimme, J.Antony, S.Ehrlich and H.Krieg, J.Chem.Phys., 132, (2010), 154104 
   

================================================================================

----- Orbital basis set information -----
Your calculation utilizes the basis: def2-TZVP
   F. Weigend and R. Ahlrichs, Phys. Chem. Chem. Phys. 7, 3297 (2005).

----- AuxJ basis set information -----
Your calculation utilizes the auxiliary basis: def2/J
   F. Weigend, Phys. Chem. Chem. Phys. 8, 1057 (2006).

================================================================================
                                        WARNINGS
                       Please study these warnings very carefully!
================================================================================


WARNING: MOInp is set but Guess=PModel. MOInp will be ignored!
         To read the initial guess from a file you must also specify
         'MORead' in the simple input or 'Guess MORead' in the %scf block


INFO   : the flag for use of the SHARK integral package has been found!

================================================================================
                                       INPUT FILE
================================================================================
NAME = ex.inp
|  1> ! PBE D3 def2-TZVP opt PModel NOAUTOSTART cpcm(water)
|  2> 
|  3> %pal nprocs=16 end
|  4> %geom maxiter=200 end
|  5> %base "1_M0002"
|  6> 
|  7> * xyz -2 1
|  8> O       -2.031037     -2.062449     -0.049321
|  9> O       -3.307150      0.599768     -0.503427
| 10> N        2.925979      0.077175     -1.435707
| 11> C        2.153620      0.147371      0.963706
| 12> C        0.699293      0.250785      0.602187
| 13> C        3.015942     -0.544013     -0.105473
| 14> C       -0.084508     -0.900396      0.442535
| 15> C        0.094415      1.478147      0.401001
| 16> C       -1.458703     -0.912270      0.065928
| 17> C       -1.251647      1.527268      0.034471
| 18> C       -2.083157      0.389278     -0.155479
| 19> H        2.560882      1.148697      1.155720
| 20> H        2.243050     -0.399729      1.910689
| 21> H        2.747056     -1.602590     -0.194985
| 22> H        4.062616     -0.511037      0.216663
| 23> H        0.376102     -1.873851      0.608721
| 24> H        0.639013      2.405862      0.514153
| 25> H       -1.706353      2.504030     -0.122715
| 26> H        2.786392      1.080241     -1.306495
| 27> H        2.003359     -0.207406     -1.803065
| 28> *
| 29> 
| 30> $new_job
| 31> 
| 32> ! PBE D3 def2-TZVP opt PModel NOAUTOSTART cpcm(water)
| 33> 
| 34> %pal nprocs=16 end
| 35> %geom maxiter=200 end
| 36> %base "2_M0001"
| 37> 
| 38> * xyz -2 1
| 39> O       -2.053517     -2.034373      0.185438
| 40> O       -3.299854      0.572811     -0.572818
| 41> N        2.860805     -0.833072     -1.237455
| 42> C        2.152337      0.220042      0.941851
| 43> C        0.697822      0.310851      0.581319
| 44> C        3.082832      0.258048     -0.280072
| 45> C       -0.098603     -0.842826      0.551432
| 46> C        0.112931      1.512149      0.227344
| 47> C       -1.470338     -0.883949      0.171908
| 48> C       -1.232297      1.533165     -0.145563
| 49> C       -2.078509      0.390321     -0.200609
| 50> H        2.404826      1.051022      1.612914
| 51> H        2.339631     -0.693917      1.520319
| 52> H        4.119799      0.198321      0.068402
| 53> H        2.980176      1.212058     -0.809753
| 54> H        0.351118     -1.796109      0.827513
| 55> H        0.673739      2.437076      0.225255
| 56> H       -1.673913      2.489310     -0.421814
| 57> H        1.923336     -0.670522     -1.640807
| 58> H        2.685580     -1.690041     -0.706467
| 59> *
| 60> 
| 61> $new_job
| 62> 
| 63> ! PBE D3 def2-TZVP opt PModel NOAUTOSTART cpcm(water)
| 64> 
| 65> %pal nprocs=16 end
| 66> %geom maxiter=200 end
| 67> %base "3_M0003"
| 68> 
| 69> * xyz -2 1
| 70> O        2.114611     -2.026864      0.172957
| 71> O        3.292629      0.696394      0.521424
| 72> N       -3.095376      0.385734      1.278702
| 73> C       -2.126657     -0.018000     -1.001073
| 74> C       -0.676513      0.160651     -0.644025
| 75> C       -2.962669     -0.567884      0.165257
| 76> C        0.143654     -0.954433     -0.416033
| 77> C       -0.118767      1.415902     -0.489614
| 78> C        1.508733     -0.902964     -0.011849
| 79> C        1.218352      1.527451     -0.102381
| 80> C        2.084209      0.428309      0.158469
| 81> H       -2.554110      0.929990     -1.351901
| 82> H       -2.192610     -0.710250     -1.850145
| 83> H       -2.524436     -1.498260      0.544364
| 84> H       -3.968741     -0.808396     -0.194728
| 85> H       -0.282247     -1.949428     -0.542024
| 86> H       -0.697965      2.315911     -0.648574
| 87> H        1.635879      2.525772      0.018248
| 88> H       -2.148160      0.757196      1.442609
| 89> H       -3.279933     -0.153105      2.123681
| 90> *
| 91> 
| 92> $new_job
| 93> 
| 94> ! PBE D3 def2-TZVP opt PModel NOAUTOSTART cpcm(water)
| 95> 
| 96> %pal nprocs=16 end
| 97> %geom maxiter=200 end
| 98> %base "4_M0006"
| 99> 
|100> * xyz -2 1
|101> O       -2.005938     -2.061962      0.225043
|102> O       -3.326877      0.482115     -0.614452
|103> N        3.035492     -1.020148     -0.980444
|104> C        2.132501      0.350235      0.923363
|105> C        0.669325      0.377497      0.576988
|106> C        3.024104      0.295567     -0.327293
|107> C       -0.091260     -0.799941      0.579212
|108> C        0.045428      1.550263      0.190850
|109> C       -1.458698     -0.894462      0.188445
|110> C       -1.297297      1.519725     -0.189749
|111> C       -2.104671      0.349258     -0.223967
|112> H        2.373400      1.255716      1.495247
|113> H        2.354637     -0.490875      1.592252
|114> H        4.055070      0.532204     -0.043029
|115> H        2.706982      1.054219     -1.052586
|116> H        0.387655     -1.729530      0.886964
|117> H        0.576366      2.492356      0.166125
|118> H       -1.767071      2.454022     -0.492627
|119> H        3.130695     -0.876369     -1.984446
|120> H        2.079749     -1.400785     -0.896615
|121> *
|122> 
|123> $new_job
|124> 
|125> ! PBE D3 def2-TZVP opt PModel NOAUTOSTART cpcm(water)
|126> 
|127> %pal nprocs=16 end
|128> %geom maxiter=200 end
|129> %base "5_M0005"
|130> 
|131> * xyz -2 1
|132> O        2.289029     -2.042674      0.054462
|133> O        3.516138      0.665485      0.348449
|134> N       -4.279682     -0.192325      0.379319
|135> C       -2.027849      0.017064     -0.649438
|136> C       -0.558856      0.176640     -0.393879
|137> C       -2.838915     -0.021300      0.651254
|138> C        0.269135     -0.948151     -0.273228
|139> C        0.017515      1.424686     -0.247608
|140> C        1.671806     -0.912385     -0.022880
|141> C        1.388411      1.520479     -0.000310
|142> C        2.271841      0.411664      0.121713
|143> H       -2.374330      0.841684     -1.286424
|144> H       -2.201129     -0.899018     -1.229379
|145> H       -2.700193      0.907177      1.216567
|146> H       -2.503115     -0.843239      1.293601
|147> H       -0.175601     -1.937490     -0.377355
|148> H       -0.567623      2.331489     -0.320954
|149> H        1.822526      2.512975      0.108810
|150> H       -4.388116     -1.083697     -0.104346
|151> H       -4.554502      0.521729     -0.292789
|152> *
|153> 
|154> 
|155> 
|156> 
|157>                          ****END OF INPUT****
================================================================================


                 $$$$$$$$$$$$$$$$$$$$$$$$$$$$$$$$$$$$$$$$$$$$$$ 
                 $ THERE ARE  5 JOBS TO BE PROCESSED THIS RUN $
                 $$$$$$$$$$$$$$$$$$$$$$$$$$$$$$$$$$$$$$$$$$$$$$ 




                 $$$$$$$$$$$$$$$$  JOB NUMBER  1 $$$$$$$$$$$$$$


                       *****************************
                       * Geometry Optimization Run *
                       *****************************

Geometry optimization settings:
Update method            Update   .... BFGS
Choice of coordinates    CoordSys .... Z-matrix Internals
Initial Hessian          InHess   .... Almoef's Model

Convergence Tolerances:
Energy Change            TolE     ....  5.0000e-06 Eh
Max. Gradient            TolMAXG  ....  3.0000e-04 Eh/bohr
RMS Gradient             TolRMSG  ....  1.0000e-04 Eh/bohr
Max. Displacement        TolMAXD  ....  4.0000e-03 bohr
RMS Displacement         TolRMSD  ....  2.0000e-03 bohr
Strict Convergence                ....  False
------------------------------------------------------------------------------
                        ORCA OPTIMIZATION COORDINATE SETUP
------------------------------------------------------------------------------

The optimization will be done in new redundant internal coordinates
Making redundant internal coordinates   ...  (new redundants) done
Evaluating the initial hessian          ...  (Almloef) done
Evaluating the coordinates              ...  done
Calculating the B-matrix                .... done
Calculating the G-matrix                .... done
Diagonalizing the G-matrix              .... done
Small eigenvalue found = 1.858e-02
The first mode is                       ....   44
The number of degrees of freedom        ....   54

    -----------------------------------------------------------------
                    Redundant Internal Coordinates


    -----------------------------------------------------------------
         Definition                    Initial Value    Approx d2E/dq
    -----------------------------------------------------------------
      1. B(C   4,C   3)                  1.5022         0.413818   
      2. B(C   5,N   2)                  1.4709         0.415753   
      3. B(C   5,C   3)                  1.5378         0.363054   
      4. B(C   6,C   4)                  1.4018         0.598285   
      5. B(C   7,C   4)                  1.3830         0.641002   
      6. B(C   8,C   6)                  1.4249         0.549582   
      7. B(C   8,O   0)                  1.2899         0.808405   
      8. B(C   9,C   7)                  1.3959         0.611317   
      9. B(C  10,C   9)                  1.4222         0.555194   
     10. B(C  10,C   8)                  1.4605         0.482279   
     11. B(C  10,O   1)                  1.2898         0.808667   
     12. B(H  11,C   3)                  1.0979         0.349799   
     13. B(H  12,C   3)                  1.0973         0.350556   
     14. B(H  13,C   5)                  1.0959         0.352438   
     15. B(H  14,C   5)                  1.0956         0.352740   
     16. B(H  15,C   6)                  1.0897         0.360529   
     17. B(H  16,C   7)                  1.0817         0.371267   
     18. B(H  17,C   9)                  1.0888         0.361664   
     19. B(H  18,N   2)                  1.0209         0.415660   
     20. B(H  19,N   2)                  1.0330         0.397595   
     21. A(H  18,N   2,H  19)          101.1602         0.297289   
     22. A(C   5,N   2,H  18)          107.9889         0.333116   
     23. A(C   5,N   2,H  19)          105.0635         0.330674   
     24. A(C   5,C   3,H  12)          109.2786         0.321385   
     25. A(C   4,C   3,H  12)          108.7189         0.328372   
     26. A(C   4,C   3,H  11)          109.7818         0.328255   
     27. A(C   5,C   3,H  11)          108.8831         0.321271   
     28. A(C   4,C   3,C   5)          113.9869         0.367969   
     29. A(H  11,C   3,H  12)          105.8763         0.288303   
     30. A(C   6,C   4,C   7)          117.8833         0.433883   
     31. A(C   3,C   4,C   7)          121.3012         0.406275   
     32. A(C   3,C   4,C   6)          120.8112         0.401361   
     33. A(C   3,C   5,H  14)          108.5269         0.321712   
     34. A(H  13,C   5,H  14)          106.7081         0.288923   
     35. A(N   2,C   5,H  14)          108.1572         0.326987   
     36. A(C   3,C   5,H  13)          110.7019         0.321667   
     37. A(N   2,C   5,H  13)          108.6072         0.326941   
     38. A(N   2,C   5,C   3)          113.8673         0.365966   
     39. A(C   8,C   6,H  15)          116.1371         0.345874   
     40. A(C   4,C   6,H  15)          118.6794         0.350858   
     41. A(C   4,C   6,C   8)          125.1823         0.422079   
     42. A(C   9,C   7,H  16)          118.8665         0.353893   
     43. A(C   4,C   7,H  16)          121.7160         0.356751   
     44. A(C   4,C   7,C   9)          119.4165         0.435570   
     45. A(O   0,C   8,C   6)          117.3204         0.442627   
     46. A(C   6,C   8,C  10)          116.4227         0.406219   
     47. A(O   0,C   8,C  10)          126.2567         0.432324   
     48. A(C  10,C   9,H  17)          117.0252         0.346649   
     49. A(C   7,C   9,H  17)          118.1749         0.352326   
     50. A(C   7,C   9,C  10)          124.7996         0.424478   
     51. A(C   8,C  10,C   9)          116.2873         0.406949   
     52. A(O   1,C  10,C   9)          117.4068         0.443467   
     53. A(O   1,C  10,C   8)          126.3059         0.432349   
     54. D(C   7,C   4,C   3,C   5)   -115.1605         0.012675   
     55. D(C   7,C   4,C   3,H  11)      7.2838         0.012675   
     56. D(C   6,C   4,C   3,C   5)     64.0726         0.012675   
     57. D(C   7,C   4,C   3,H  12)    122.6768         0.012675   
     58. D(C   6,C   4,C   3,H  12)    -58.0900         0.012675   
     59. D(C   6,C   4,C   3,H  11)   -173.4831         0.012675   
     60. D(N   2,C   5,C   3,H  11)    -67.2026         0.010562   
     61. D(H  14,C   5,N   2,H  19)    164.7095         0.014741   
     62. D(H  13,C   5,N   2,H  19)     49.2632         0.014741   
     63. D(H  14,C   5,C   3,H  12)    -61.9041         0.010562   
     64. D(H  14,C   5,C   3,H  11)     53.3059         0.010562   
     65. D(C   3,C   5,N   2,H  18)     32.7706         0.014741   
     66. D(N   2,C   5,C   3,C   4)     55.7330         0.010562   
     67. D(N   2,C   5,C   3,H  12)    177.5874         0.010562   
     68. D(H  13,C   5,C   3,H  12)     54.8897         0.010562   
     69. D(H  13,C   5,C   3,H  11)    170.0997         0.010562   
     70. D(H  13,C   5,N   2,H  18)    156.6087         0.014741   
     71. D(H  14,C   5,C   3,C   4)    176.2415         0.010562   
     72. D(H  13,C   5,C   3,C   4)    -66.9647         0.010562   
     73. D(H  14,C   5,N   2,H  18)    -87.9450         0.014741   
     74. D(C   3,C   5,N   2,H  19)    -74.5749         0.014741   
     75. D(H  15,C   6,C   4,C   7)   -179.3299         0.024668   
     76. D(H  15,C   6,C   4,C   3)      1.4114         0.024668   
     77. D(C   8,C   6,C   4,C   7)      1.0831         0.024668   
     78. D(C   8,C   6,C   4,C   3)   -178.1756         0.024668   
     79. D(H  16,C   7,C   4,C   6)    179.5821         0.028554   
     80. D(H  16,C   7,C   4,C   3)     -1.1630         0.028554   
     81. D(C   9,C   7,C   4,C   6)     -0.8061         0.028554   
     82. D(C   9,C   7,C   4,C   3)    178.4488         0.028554   
     83. D(O   0,C   8,C   6,H  15)     -0.2509         0.020661   
     84. D(O   0,C   8,C   6,C   4)    179.3454         0.020661   
     85. D(C  10,C   8,C   6,H  15)    179.8670         0.020661   
     86. D(C  10,C   8,C   6,C   4)     -0.5366         0.020661   
     87. D(H  17,C   9,C   7,H  16)     -0.1288         0.025816   
     88. D(H  17,C   9,C   7,C   4)   -179.7518         0.025816   
     89. D(C  10,C   9,C   7,H  16)    179.6754         0.025816   
     90. D(C  10,C   9,C   7,C   4)      0.0524         0.025816   
     91. D(C   8,C  10,C   9,H  17)   -179.7102         0.021101   
     92. D(C   8,C  10,C   9,C   7)      0.4835         0.021101   
     93. D(O   1,C  10,C   9,H  17)      0.2640         0.021101   
     94. D(O   1,C  10,C   9,C   7)   -179.5423         0.021101   
     95. D(C   9,C  10,C   8,C   6)     -0.2410         0.015836   
     96. D(C   9,C  10,C   8,O   0)    179.8890         0.015836   
     97. D(O   1,C  10,C   8,C   6)    179.7874         0.015836   
     98. D(O   1,C  10,C   8,O   0)     -0.0826         0.015836   
    -----------------------------------------------------------------

Number of atoms                         .... 20
Number of degrees of freedom            .... 98

         *************************************************************
         *                GEOMETRY OPTIMIZATION CYCLE   1            *
         *************************************************************
---------------------------------
CARTESIAN COORDINATES (ANGSTROEM)
---------------------------------
  O     -2.031037   -2.062449   -0.049321
  O     -3.307150    0.599768   -0.503427
  N      2.925979    0.077175   -1.435707
  C      2.153620    0.147371    0.963706
  C      0.699293    0.250785    0.602187
  C      3.015942   -0.544013   -0.105473
  C     -0.084508   -0.900396    0.442535
  C      0.094415    1.478147    0.401001
  C     -1.458703   -0.912270    0.065928
  C     -1.251647    1.527268    0.034471
  C     -2.083157    0.389278   -0.155479
  H      2.560882    1.148697    1.155720
  H      2.243050   -0.399729    1.910689
  H      2.747056   -1.602590   -0.194985
  H      4.062616   -0.511037    0.216663
  H      0.376102   -1.873851    0.608721
  H      0.639013    2.405862    0.514153
  H     -1.706353    2.504030   -0.122715
  H      2.786392    1.080241   -1.306495
  H      2.003359   -0.207406   -1.803065

----------------------------
CARTESIAN COORDINATES (A.U.)
----------------------------
  NO LB      ZA    FRAG     MASS         X           Y           Z
   0 O     8.0000    0    15.999   -3.838104   -3.897464   -0.093203
   1 O     8.0000    0    15.999   -6.249608    1.133397   -0.951339
   2 N     7.0000    0    14.007    5.529299    0.145840   -2.713093
   3 C     6.0000    0    12.011    4.069752    0.278491    1.821140
   4 C     6.0000    0    12.011    1.321472    0.473915    1.137969
   5 C     6.0000    0    12.011    5.699304   -1.028036   -0.199315
   6 C     6.0000    0    12.011   -0.159697   -1.701502    0.836270
   7 C     6.0000    0    12.011    0.178418    2.793293    0.757782
   8 C     6.0000    0    12.011   -2.756549   -1.723940    0.124586
   9 C     6.0000    0    12.011   -2.365270    2.886118    0.065141
  10 C     6.0000    0    12.011   -3.936596    0.735629   -0.293813
  11 H     1.0000    0     1.008    4.839366    2.170723    2.183994
  12 H     1.0000    0     1.008    4.238750   -0.755378    3.610679
  13 H     1.0000    0     1.008    5.191184   -3.028456   -0.368468
  14 H     1.0000    0     1.008    7.677232   -0.965720    0.409434
  15 H     1.0000    0     1.008    0.710730   -3.541065    1.150316
  16 H     1.0000    0     1.008    1.207560    4.546420    0.971608
  17 H     1.0000    0     1.008   -3.224540    4.731931   -0.231898
  18 H     1.0000    0     1.008    5.265518    2.041360   -2.468918
  19 H     1.0000    0     1.008    3.785800   -0.391941   -3.407299

--------------------------------
INTERNAL COORDINATES (ANGSTROEM)
--------------------------------
 O      0   0   0     0.000000000000     0.00000000     0.00000000
 O      1   0   0     2.986984433018     0.00000000     0.00000000
 N      1   2   0     5.574232200638    90.00001023     0.00000000
 C      3   1   2     2.521636105362    60.10902995    89.27255979
 C      4   3   1     1.502150946372    93.98270511   328.83546107
 C      3   1   2     1.470880813482    70.57051758   124.93437497
 C      5   4   3     1.401802576494   120.81119965    90.29780929
 C      5   4   3     1.383029529881   121.30124252   271.06465716
 C      1   2   3     1.289868315604    53.72933759    27.57706436
 C      8   5   4     1.395936968987   119.41647599   178.44881207
 C      2   1   3     1.289780103294    53.70799901   332.38254841
 H      4   3   1     1.097900483248    94.48428640   218.60724927
 H      4   3   1     1.097311686436   141.47452775    95.98801439
 H      6   3   1     1.095854618126   108.60720870    58.83471413
 H      6   3   1     1.095621048241   108.15724364   174.28098529
 H      7   5   4     1.089676096701   118.67938329     1.41138362
 H      8   5   4     1.081686404617   121.71595344   358.83696578
 H     10   8   5     1.088819998749   118.17494140   180.24822707
 H      3   1   2     1.020941561437   102.94754382    20.16494417
 H      3   1   2     1.033037225914    35.75545852   288.98515526

---------------------------
INTERNAL COORDINATES (A.U.)
---------------------------
 O      0   0   0     0.000000000000     0.00000000     0.00000000
 O      1   0   0     5.644582544691     0.00000000     0.00000000
 N      1   2   0    10.533772266091    90.00001023     0.00000000
 C      3   1   2     4.765201648542    60.10902995    89.27255979
 C      4   3   1     2.838653900454    93.98270511   328.83546107
 C      3   1   2     2.779561913120    70.57051758   124.93437497
 C      5   4   3     2.649022963399   120.81119965    90.29780929
 C      5   4   3     2.613547046602   121.30124252   271.06465716
 C      1   2   3     2.437497865313    53.72933759    27.57706436
 C      8   5   4     2.637938571602   119.41647599   178.44881207
 C      2   1   3     2.437331168206    53.70799901   332.38254841
 H      4   3   1     2.074731235638    94.48428640   218.60724927
 H      4   3   1     2.073618570915   141.47452775    95.98801439
 H      6   3   1     2.070865110852   108.60720870    58.83471413
 H      6   3   1     2.070423727735   108.15724364   174.28098529
 H      7   5   4     2.059189397445   118.67938329     1.41138362
 H      8   5   4     2.044091067512   121.71595344   358.83696578
 H     10   8   5     2.057571606772   118.17494140   180.24822707
 H      3   1   2     1.929299949853   102.94754382    20.16494417
 H      3   1   2     1.952157443124    35.75545852   288.98515526

---------------------
BASIS SET INFORMATION
---------------------
There are 4 groups of distinct atoms

 Group   1 Type O   : 11s6p2d1f contracted to 5s3p2d1f pattern {62111/411/11/1}
 Group   2 Type N   : 11s6p2d1f contracted to 5s3p2d1f pattern {62111/411/11/1}
 Group   3 Type C   : 11s6p2d1f contracted to 5s3p2d1f pattern {62111/411/11/1}
 Group   4 Type H   : 5s1p contracted to 3s1p pattern {311/1}

Atom   0O    basis set group =>   1
Atom   1O    basis set group =>   1
Atom   2N    basis set group =>   2
Atom   3C    basis set group =>   3
Atom   4C    basis set group =>   3
Atom   5C    basis set group =>   3
Atom   6C    basis set group =>   3
Atom   7C    basis set group =>   3
Atom   8C    basis set group =>   3
Atom   9C    basis set group =>   3
Atom  10C    basis set group =>   3
Atom  11H    basis set group =>   4
Atom  12H    basis set group =>   4
Atom  13H    basis set group =>   4
Atom  14H    basis set group =>   4
Atom  15H    basis set group =>   4
Atom  16H    basis set group =>   4
Atom  17H    basis set group =>   4
Atom  18H    basis set group =>   4
Atom  19H    basis set group =>   4
---------------------------------
AUXILIARY/J BASIS SET INFORMATION
---------------------------------
There are 4 groups of distinct atoms

 Group   1 Type O   : 12s5p4d2f1g contracted to 6s4p3d1f1g pattern {711111/2111/211/2/1}
 Group   2 Type N   : 12s5p4d2f1g contracted to 6s4p3d1f1g pattern {711111/2111/211/2/1}
 Group   3 Type C   : 12s5p4d2f1g contracted to 6s4p3d1f1g pattern {711111/2111/211/2/1}
 Group   4 Type H   : 5s2p1d contracted to 3s1p1d pattern {311/2/1}

Atom   0O    basis set group =>   1
Atom   1O    basis set group =>   1
Atom   2N    basis set group =>   2
Atom   3C    basis set group =>   3
Atom   4C    basis set group =>   3
Atom   5C    basis set group =>   3
Atom   6C    basis set group =>   3
Atom   7C    basis set group =>   3
Atom   8C    basis set group =>   3
Atom   9C    basis set group =>   3
Atom  10C    basis set group =>   3
Atom  11H    basis set group =>   4
Atom  12H    basis set group =>   4
Atom  13H    basis set group =>   4
Atom  14H    basis set group =>   4
Atom  15H    basis set group =>   4
Atom  16H    basis set group =>   4
Atom  17H    basis set group =>   4
Atom  18H    basis set group =>   4
Atom  19H    basis set group =>   4
No protocol specified


           ************************************************************
           *        Program running with 16 parallel MPI-processes    *
           *              working on a common directory               *
           ************************************************************
------------------------------------------------------------------------------
                           ORCA GTO INTEGRAL CALCULATION
                           -- RI-GTO INTEGRALS CHOSEN --
------------------------------------------------------------------------------
------------------------------------------------------------------------------
                   ___                                                        
                  /   \      - P O W E R E D   B Y -                         
                 /     \                                                     
                 |  |  |   _    _      __       _____    __    __             
                 |  |  |  | |  | |    /  \     |  _  \  |  |  /  |          
                  \  \/   | |  | |   /    \    | | | |  |  | /  /          
                 / \  \   | |__| |  /  /\  \   | |_| |  |  |/  /          
                |  |  |   |  __  | /  /__\  \  |    /   |      \           
                |  |  |   | |  | | |   __   |  |    \   |  |\   \          
                \     /   | |  | | |  |  |  |  | |\  \  |  | \   \       
                 \___/    |_|  |_| |__|  |__|  |_| \__\ |__|  \__/        
                                                                              
                      - O R C A' S   B I G   F R I E N D -                    
                                      &                                       
                       - I N T E G R A L  F E E D E R -                       
                                                                              
 v1 FN, 2020, v2 2021                                                         
------------------------------------------------------------------------------


Reading SHARK input file 1_M0002.SHARKINP.tmp ... ok
----------------------
SHARK INTEGRAL PACKAGE
----------------------

Number of atoms                             ...     20
Number of basis functions                   ...    395
Number of shells                            ...    157
Maximum angular momentum                    ...      3
Integral batch strategy                     ... SHARK/LIBINT Hybrid
RI-J (if used) integral strategy            ... SPLIT-RIJ (Revised 2003 algorithm where possible)
Printlevel                                  ...      1
Contraction scheme used                     ... SEGMENTED contraction
Coulomb Range Separation                    ... NOT USED
Exchange Range Separation                   ... NOT USED
Finite Nucleus Model                        ... NOT USED
Auxiliary Coulomb fitting basis             ... AVAILABLE
   # of basis functions in Aux-J            ...    638
   # of shells in Aux-J                     ...    210
   Maximum angular momentum in Aux-J        ...      4
Auxiliary J/K fitting basis                 ... NOT available
Auxiliary Correlation fitting basis         ... NOT available
Auxiliary 'external' fitting basis          ... NOT available
Integral threshold                          ...     2.500000e-11
Primitive cut-off                           ...     2.500000e-12
Primitive pair pre-selection threshold      ...     2.500000e-12

Calculating pre-screening integrals         ... done (  0.1 sec) Dimension = 157
Organizing shell pair data                  ... done (  0.2 sec)
Shell pair information
Total number of shell pairs                 ...     12403
Shell pairs after pre-screening             ...     10696
Total number of primitive shell pairs       ...     37944
Primitive shell pairs kept                  ...     23652
          la=0 lb=0:   2824 shell pairs
          la=1 lb=0:   3031 shell pairs
          la=1 lb=1:    835 shell pairs
          la=2 lb=0:   1535 shell pairs
          la=2 lb=1:    833 shell pairs
          la=2 lb=2:    222 shell pairs
          la=3 lb=0:    742 shell pairs
          la=3 lb=1:    409 shell pairs
          la=3 lb=2:    208 shell pairs
          la=3 lb=3:     57 shell pairs

Calculating one electron integrals          ... done (  0.0 sec)
Calculating RI/J V-Matrix + Cholesky decomp.... done (  0.0 sec)
Calculating Nuclear repulsion               ... done (  0.0 sec) ENN=    574.478981480372 Eh

SHARK setup successfully completed in   0.6 seconds

Maximum memory used throughout the entire GTOINT-calculation: 23.7 MB
No protocol specified


           ************************************************************
           *        Program running with 16 parallel MPI-processes    *
           *              working on a common directory               *
           ************************************************************
-------------------------------------------------------------------------------
                                 ORCA SCF
-------------------------------------------------------------------------------

------------
SCF SETTINGS
------------
Hamiltonian:
 Density Functional     Method          .... DFT(GTOs)
 Exchange Functional    Exchange        .... PBE
   PBE kappa parameter   XKappa         ....  0.804000
   PBE mue parameter    XMuePBE         ....  0.219520
 Correlation Functional Correlation     .... PBE
   PBE beta parameter  CBetaPBE         ....  0.066725
 LDA part of GGA corr.  LDAOpt          .... PW91-LDA
 Gradients option       PostSCFGGA      .... off
   Density functional embedding theory  .... OFF
   NL short-range parameter             ....  6.400000
 RI-approximation to the Coulomb term is turned on
   Number of AuxJ basis functions       .... 638


General Settings:
 Integral files         IntName         .... 1_M0002
 Hartree-Fock type      HFTyp           .... RHF
 Total Charge           Charge          ....   -2
 Multiplicity           Mult            ....    1
 Number of Electrons    NEL             ....   82
 Basis Dimension        Dim             ....  395
 Nuclear Repulsion      ENuc            ....    574.4789814804 Eh

Convergence Acceleration:
 DIIS                   CNVDIIS         .... on
   Start iteration      DIISMaxIt       ....    12
   Startup error        DIISStart       ....  0.200000
   # of expansion vecs  DIISMaxEq       ....     5
   Bias factor          DIISBfac        ....   1.050
   Max. coefficient     DIISMaxC        ....  10.000
 Trust-Rad. Augm. Hess. CNVTRAH         .... auto
   Auto Start mean grad. ratio tolernc. ....  1.125000
   Auto Start start iteration           ....    20
   Auto Start num. interpolation iter.  ....    10
   Max. Number of Micro iterations      ....    16
   Max. Number of Macro iterations      .... Maxiter - #DIIS iter
   Number of Davidson start vectors     ....     2
   Converg. threshold I  (grad. norm)   ....   1.000e-05
   Converg. threshold II (energy diff.) ....   1.000e-08
   Grad. Scal. Fac. for Micro threshold ....   0.100
   Minimum threshold for Micro iter.    ....   0.010
   NR start threshold (gradient norm)   ....   0.001
   Initial trust radius                 ....   0.400
   Minimum AH scaling param. (alpha)    ....   1.000
   Maximum AH scaling param. (alpha)    .... 1000.000
   Orbital update algorithm             .... Taylor
   White noise on init. David. guess    .... on
   Maximum white noise                  ....   0.010
   Quad. conv. algorithm                .... NR
 SOSCF                  CNVSOSCF        .... on
   Start iteration      SOSCFMaxIt      ....   150
   Startup grad/error   SOSCFStart      ....  0.003300
 Level Shifting         CNVShift        .... on
   Level shift para.    LevelShift      ....    0.2500
   Turn off err/grad.   ShiftErr        ....    0.0010
 Zerner damping         CNVZerner       .... off
 Static damping         CNVDamp         .... on
   Fraction old density DampFac         ....    0.7000
   Max. Damping (<1)    DampMax         ....    0.9800
   Min. Damping (>=0)   DampMin         ....    0.0000
   Turn off err/grad.   DampErr         ....    0.1000
 Fernandez-Rico         CNVRico         .... off

SCF Procedure:
 Maximum # iterations   MaxIter         ....   125
 SCF integral mode      SCFMode         .... Direct
   Integral package                     .... SHARK and LIBINT hybrid scheme
 Reset frequency        DirectResetFreq ....    20
 Integral Threshold     Thresh          ....  2.500e-11 Eh
 Primitive CutOff       TCut            ....  2.500e-12 Eh

Convergence Tolerance:
 Convergence Check Mode ConvCheckMode   .... Total+1el-Energy
 Convergence forced     ConvForced      .... 0
 Energy Change          TolE            ....  1.000e-08 Eh
 1-El. energy change                    ....  1.000e-05 Eh
 Orbital Gradient       TolG            ....  1.000e-05
 Orbital Rotation angle TolX            ....  1.000e-05
 DIIS Error             TolErr          ....  5.000e-07


Diagonalization of the overlap matrix:
Smallest eigenvalue                        ... 1.076e-05
Time for diagonalization                   ...    0.041 sec
Threshold for overlap eigenvalues          ... 1.000e-08
Number of eigenvalues below threshold      ... 0
Time for construction of square roots      ...    0.025 sec
Total time needed                          ...    0.068 sec

Time for model grid setup =    0.133 sec

------------------------------
INITIAL GUESS: MODEL POTENTIAL
------------------------------
Loading Hartree-Fock densities                     ... done
Calculating cut-offs                               ... done
Initializing the effective Hamiltonian             ... done
Setting up the integral package (SHARK)            ... done
Starting the Coulomb interaction                   ... done (   0.1 sec)
Reading the grid                                   ... done
Mapping shells                                     ... done
Starting the XC term evaluation                    ... done (   0.1 sec)
  promolecular density results
     # of electrons  =     79.996866848
     EX              =    -66.336145374
     EC              =     -2.663169257
     EX+EC           =    -68.999314631
Transforming the Hamiltonian                       ... done (   0.0 sec)
Diagonalizing the Hamiltonian                      ... done (   0.0 sec)
Back transforming the eigenvectors                 ... done (   0.0 sec)
Now organizing SCF variables                       ... done
                      ------------------
                      INITIAL GUESS DONE (   0.4 sec)
                      ------------------
-------------------
DFT GRID GENERATION
-------------------

General Integration Accuracy     IntAcc      ... 4.388
Radial Grid Type                 RadialGrid  ... OptM3 with GC (2021)
Angular Grid (max. ang.)         AngularGrid ... 4 (Lebedev-302)
Angular grid pruning method      GridPruning ... 4 (adaptive)
Weight generation scheme         WeightScheme... Becke
Basis function cutoff            BFCut       ... 1.0000e-11
Integration weight cutoff        WCut        ... 1.0000e-14
Angular grids for H and He will be reduced by one unit
Partially contracted basis set               ... off
Rotationally invariant grid construction     ... off

Total number of grid points                  ...    94925
Total number of batches                      ...     1493
Average number of points per batch           ...       63
Average number of grid points per atom       ...     4746
Time for grid setup =    0.727 sec


--------------------
CPCM SOLVATION MODEL
--------------------
CPCM parameters:
  Epsilon                                         ...      80.4000
  Refrac                                          ...       1.3300
  Rsolv                                           ...       1.3000
  Surface type                                    ... GAUSSIAN VDW
  Epsilon function type                           ...         CPCM
Radii:
 Radius for O  used is    3.4469 Bohr (=   1.8240 Ang.)
 Radius for N  used is    3.5149 Bohr (=   1.8600 Ang.)
 Radius for C  used is    3.8550 Bohr (=   2.0400 Ang.)
 Radius for H  used is    2.4944 Bohr (=   1.3200 Ang.)
Calculating surface                               ...        done! (  0.0s)
GEPOL surface points                              ...         1143
GEPOL Volume                                      ...    1252.7137
GEPOL Surface-area                                ...     698.6851
Calculating surface distance matrix               ...        done! (  0.0s)
Performing Cholesky decomposition & store         ...        done! (  0.1s)
Overall time for CPCM initialization              ...                 0.1s
--------------
SCF ITERATIONS
--------------
ITER       Energy         Delta-E        Max-DP      RMS-DP      [F,P]     Damp
               ***  Starting incremental Fock matrix formation  ***
  0   -514.7569844759   0.000000000000 1.38901591  0.01194685  0.3471774 0.7000
  1   -515.0155483227  -0.258563846808 1.16197660  0.01006327  0.1136382 0.7000
                               ***Turning on DIIS***
  2   -515.0970763479  -0.081528025151 0.69468151  0.00731990  0.0330132 0.0000
  3   -515.2355676122  -0.138491264315 1.11078706  0.00940805  0.0631197 0.0000
  4   -515.2687564146  -0.033188802471 0.22953361  0.00203095  0.0277554 0.0000
  5   -515.2727628038  -0.004006389140 0.11724732  0.00103689  0.0071261 0.0000
                      *** Initiating the SOSCF procedure ***
                           *** Shutting down DIIS ***
                      *** Re-Reading the Fockian *** 
                      *** Removing any level shift *** 
ITER      Energy       Delta-E        Grad      Rot      Max-DP    RMS-DP
  6   -515.27301174  -0.0002489362  0.000314  0.000314  0.032168  0.000315
               *** Restarting incremental Fock matrix formation ***
  7   -515.27302839  -0.0000166500  0.000216  0.001962  0.021435  0.000207
  8   -515.27302487   0.0000035199  0.000415  0.000957  0.004640  0.000046
  9   -515.27303359  -0.0000087192  0.000141  0.000854  0.003385  0.000033
 10   -515.27303159   0.0000019979  0.000318  0.000705  0.003900  0.000033
 11   -515.27303409  -0.0000025023  0.000010  0.000064  0.001637  0.000017
 12   -515.27303409   0.0000000042  0.000024  0.000052  0.000173  0.000002
 13   -515.27303411  -0.0000000179  0.000004  0.000024  0.000692  0.000008
 14   -515.27303410   0.0000000072  0.000004  0.000007  0.000313  0.000003
                  ***Gradient check signals convergence***
              ***Rediagonalizing the Fockian in SOSCF/NRSCF***

               *****************************************************
               *                     SUCCESS                       *
               *           SCF CONVERGED AFTER  15 CYCLES          *
               *****************************************************


----------------
TOTAL SCF ENERGY
----------------

Total Energy       :         -515.27303411 Eh          -14021.29209 eV

Components:
Nuclear Repulsion  :          574.47898148 Eh           15632.36782 eV
Electronic Energy  :        -1089.75201559 Eh          -29653.65991 eV
One Electron Energy:        -1867.82775634 Eh          -50826.17720 eV
Two Electron Energy:          778.07574075 Eh           21172.51730 eV
CPCM Dielectric    :           -0.33702140 Eh              -9.17082 eV

Virial components:
Potential Energy   :        -1028.56471349 Eh          -27988.66877 eV
Kinetic Energy     :          513.29167939 Eh           13967.37668 eV
Virial Ratio       :            2.00386010


DFT components:
N(Alpha)           :       41.000021502471 electrons
N(Beta)            :       41.000021502471 electrons
N(Total)           :       82.000043004943 electrons
E(X)               :      -68.099436520070 Eh       
E(C)               :       -2.739954961126 Eh       
E(XC)              :      -70.839391481196 Eh       
DFET-embed. en.    :        0.000000000000 Eh       
CPCM Solvation Model Properties:
Surface-charge          :            1.95734911
Charge-correction       :           -0.01108623 Eh              -0.30167 eV
Free-energy (cav+disp)  :  This term is not implemented in the current solvation scheme

---------------
SCF CONVERGENCE
---------------

  Last Energy change         ...   -5.6547e-09  Tolerance :   1.0000e-08
  Last MAX-Density change    ...    3.7427e-04  Tolerance :   1.0000e-07
  Last RMS-Density change    ...    3.1099e-06  Tolerance :   5.0000e-09
  Last Orbital Gradient      ...    6.8106e-07  Tolerance :   1.0000e-05
  Last Orbital Rotation      ...    6.8486e-06  Tolerance :   1.0000e-05

             **** THE GBW FILE WAS UPDATED (1_M0002.gbw) ****
             **** DENSITY 1_M0002.scfp WAS UPDATED ****
             **** ENERGY FILE WAS UPDATED (1_M0002.en.tmp) ****
             **** THE GBW FILE WAS UPDATED (1_M0002.gbw) ****
             **** DENSITY 1_M0002.scfp WAS UPDATED ****
----------------
ORBITAL ENERGIES
----------------

  NO   OCC          E(Eh)            E(eV) 
   0   2.0000     -18.634389      -507.0675 
   1   2.0000     -18.632539      -507.0172 
   2   2.0000     -13.953042      -379.6816 
   3   2.0000      -9.884660      -268.9753 
   4   2.0000      -9.863978      -268.4125 
   5   2.0000      -9.862075      -268.3607 
   6   2.0000      -9.854547      -268.1558 
   7   2.0000      -9.830120      -267.4912 
   8   2.0000      -9.821843      -267.2659 
   9   2.0000      -9.814541      -267.0672 
  10   2.0000      -9.814109      -267.0555 
  11   2.0000      -0.844594       -22.9826 
  12   2.0000      -0.820357       -22.3230 
  13   2.0000      -0.793007       -21.5788 
  14   2.0000      -0.709662       -19.3109 
  15   2.0000      -0.647389       -17.6163 
  16   2.0000      -0.595451       -16.2031 
  17   2.0000      -0.577113       -15.7040 
  18   2.0000      -0.522593       -14.2205 
  19   2.0000      -0.482400       -13.1268 
  20   2.0000      -0.450480       -12.2582 
  21   2.0000      -0.421588       -11.4720 
  22   2.0000      -0.384943       -10.4748 
  23   2.0000      -0.375674       -10.2226 
  24   2.0000      -0.361631        -9.8405 
  25   2.0000      -0.354872        -9.6566 
  26   2.0000      -0.335059        -9.1174 
  27   2.0000      -0.322079        -8.7642 
  28   2.0000      -0.304518        -8.2864 
  29   2.0000      -0.303106        -8.2479 
  30   2.0000      -0.294923        -8.0253 
  31   2.0000      -0.282244        -7.6803 
  32   2.0000      -0.261389        -7.1128 
  33   2.0000      -0.253386        -6.8950 
  34   2.0000      -0.235375        -6.4049 
  35   2.0000      -0.224026        -6.0961 
  36   2.0000      -0.199467        -5.4278 
  37   2.0000      -0.150337        -4.0909 
  38   2.0000      -0.142407        -3.8751 
  39   2.0000      -0.127965        -3.4821 
  40   2.0000      -0.090895        -2.4734 
  41   0.0000       0.019111         0.5200 
  42   0.0000       0.029409         0.8003 
  43   0.0000       0.039617         1.0780 
  44   0.0000       0.058042         1.5794 
  45   0.0000       0.062268         1.6944 
  46   0.0000       0.078006         2.1227 
  47   0.0000       0.087029         2.3682 
  48   0.0000       0.093943         2.5563 
  49   0.0000       0.105832         2.8798 
  50   0.0000       0.114477         3.1151 
  51   0.0000       0.132991         3.6189 
  52   0.0000       0.138764         3.7759 
  53   0.0000       0.156203         4.2505 
  54   0.0000       0.160315         4.3624 
  55   0.0000       0.168868         4.5951 
  56   0.0000       0.179848         4.8939 
  57   0.0000       0.187998         5.1157 
  58   0.0000       0.201783         5.4908 
  59   0.0000       0.216798         5.8994 
  60   0.0000       0.227008         6.1772 
  61   0.0000       0.235724         6.4144 
  62   0.0000       0.244328         6.6485 
  63   0.0000       0.253726         6.9042 
  64   0.0000       0.255719         6.9585 
  65   0.0000       0.270573         7.3627 
  66   0.0000       0.274382         7.4663 
  67   0.0000       0.282553         7.6887 
  68   0.0000       0.296762         8.0753 
  69   0.0000       0.306272         8.3341 
  70   0.0000       0.318045         8.6545 
  71   0.0000       0.330195         8.9851 
  72   0.0000       0.332498         9.0477 
  73   0.0000       0.340191         9.2571 
  74   0.0000       0.343666         9.3516 
  75   0.0000       0.346109         9.4181 
  76   0.0000       0.358547         9.7565 
  77   0.0000       0.362426         9.8621 
  78   0.0000       0.375175        10.2090 
  79   0.0000       0.383950        10.4478 
  80   0.0000       0.385052        10.4778 
  81   0.0000       0.394425        10.7329 
  82   0.0000       0.401570        10.9273 
  83   0.0000       0.414890        11.2897 
  84   0.0000       0.422335        11.4923 
  85   0.0000       0.430835        11.7236 
  86   0.0000       0.438572        11.9342 
  87   0.0000       0.440041        11.9741 
  88   0.0000       0.445139        12.1129 
  89   0.0000       0.457458        12.4481 
  90   0.0000       0.461450        12.5567 
  91   0.0000       0.470058        12.7909 
  92   0.0000       0.476435        12.9645 
  93   0.0000       0.484020        13.1709 
  94   0.0000       0.493744        13.4355 
  95   0.0000       0.505737        13.7618 
  96   0.0000       0.518756        14.1161 
  97   0.0000       0.527695        14.3593 
  98   0.0000       0.540353        14.7037 
  99   0.0000       0.542163        14.7530 
 100   0.0000       0.565321        15.3832 
 101   0.0000       0.581721        15.8294 
 102   0.0000       0.593827        16.1589 
 103   0.0000       0.602973        16.4077 
 104   0.0000       0.610204        16.6045 
 105   0.0000       0.635159        17.2835 
 106   0.0000       0.644946        17.5499 
 107   0.0000       0.650413        17.6986 
 108   0.0000       0.661650        18.0044 
 109   0.0000       0.679678        18.4950 
 110   0.0000       0.692699        18.8493 
 111   0.0000       0.707692        19.2573 
 112   0.0000       0.724661        19.7190 
 113   0.0000       0.734522        19.9874 
 114   0.0000       0.761289        20.7157 
 115   0.0000       0.778137        21.1742 
 116   0.0000       0.784795        21.3554 
 117   0.0000       0.797795        21.7091 
 118   0.0000       0.811454        22.0808 
 119   0.0000       0.821736        22.3606 
 120   0.0000       0.841597        22.9010 
 121   0.0000       0.849492        23.1159 
 122   0.0000       0.855516        23.2798 
 123   0.0000       0.863000        23.4834 
 124   0.0000       0.874075        23.7848 
 125   0.0000       0.879754        23.9393 
 126   0.0000       0.895375        24.3644 
 127   0.0000       0.917191        24.9580 
 128   0.0000       0.926405        25.2088 
 129   0.0000       0.945810        25.7368 
 130   0.0000       0.976940        26.5839 
 131   0.0000       0.995208        27.0810 
 132   0.0000       1.030245        28.0344 
 133   0.0000       1.043374        28.3917 
 134   0.0000       1.051484        28.6123 
 135   0.0000       1.072486        29.1838 
 136   0.0000       1.105003        30.0687 
 137   0.0000       1.105812        30.0907 
 138   0.0000       1.114525        30.3278 
 139   0.0000       1.154265        31.4091 
 140   0.0000       1.164222        31.6801 
 141   0.0000       1.176240        32.0071 
 142   0.0000       1.186653        32.2905 
 143   0.0000       1.205298        32.7978 
 144   0.0000       1.219597        33.1869 
 145   0.0000       1.227331        33.3974 
 146   0.0000       1.231879        33.5211 
 147   0.0000       1.257037        34.2057 
 148   0.0000       1.262393        34.3515 
 149   0.0000       1.293446        35.1964 
 150   0.0000       1.308161        35.5969 
 151   0.0000       1.325728        36.0749 
 152   0.0000       1.337034        36.3825 
 153   0.0000       1.346008        36.6267 
 154   0.0000       1.355274        36.8789 
 155   0.0000       1.375329        37.4246 
 156   0.0000       1.390611        37.8404 
 157   0.0000       1.414065        38.4787 
 158   0.0000       1.425863        38.7997 
 159   0.0000       1.447879        39.3988 
 160   0.0000       1.495784        40.7023 
 161   0.0000       1.500117        40.8203 
 162   0.0000       1.507117        41.0107 
 163   0.0000       1.514651        41.2157 
 164   0.0000       1.528554        41.5941 
 165   0.0000       1.535553        41.7845 
 166   0.0000       1.545310        42.0500 
 167   0.0000       1.556276        42.3484 
 168   0.0000       1.559741        42.4427 
 169   0.0000       1.587162        43.1889 
 170   0.0000       1.595770        43.4231 
 171   0.0000       1.620481        44.0955 
 172   0.0000       1.636593        44.5339 
 173   0.0000       1.657156        45.0935 
 174   0.0000       1.668671        45.4068 
 175   0.0000       1.689084        45.9623 
 176   0.0000       1.700500        46.2730 
 177   0.0000       1.723447        46.8974 
 178   0.0000       1.746954        47.5370 
 179   0.0000       1.758481        47.8507 
 180   0.0000       1.763055        47.9752 
 181   0.0000       1.789042        48.6823 
 182   0.0000       1.798440        48.9380 
 183   0.0000       1.810743        49.2728 
 184   0.0000       1.833562        49.8938 
 185   0.0000       1.838993        50.0415 
 186   0.0000       1.860043        50.6143 
 187   0.0000       1.875002        51.0214 
 188   0.0000       1.922307        52.3086 
 189   0.0000       1.929210        52.4965 
 190   0.0000       1.947141        52.9844 
 191   0.0000       1.960471        53.3471 
 192   0.0000       1.966821        53.5199 
 193   0.0000       1.974310        53.7237 
 194   0.0000       1.983270        53.9675 
 195   0.0000       1.993088        54.2347 
 196   0.0000       2.014543        54.8185 
 197   0.0000       2.041437        55.5503 
 198   0.0000       2.061214        56.0885 
 199   0.0000       2.063171        56.1417 
 200   0.0000       2.081395        56.6376 
 201   0.0000       2.104884        57.2768 
 202   0.0000       2.121090        57.7178 
 203   0.0000       2.137602        58.1671 
 204   0.0000       2.143432        58.3257 
 205   0.0000       2.172780        59.1243 
 206   0.0000       2.180071        59.3227 
 207   0.0000       2.213296        60.2268 
 208   0.0000       2.220293        60.4172 
 209   0.0000       2.250156        61.2299 
 210   0.0000       2.263915        61.6042 
 211   0.0000       2.271836        61.8198 
 212   0.0000       2.318995        63.1031 
 213   0.0000       2.339832        63.6701 
 214   0.0000       2.361711        64.2654 
 215   0.0000       2.375390        64.6377 
 216   0.0000       2.398885        65.2770 
 217   0.0000       2.430292        66.1316 
 218   0.0000       2.437426        66.3257 
 219   0.0000       2.455549        66.8189 
 220   0.0000       2.462193        66.9997 
 221   0.0000       2.485721        67.6399 
 222   0.0000       2.499607        68.0178 
 223   0.0000       2.534351        68.9632 
 224   0.0000       2.537253        69.0422 
 225   0.0000       2.558834        69.6294 
 226   0.0000       2.575730        70.0892 
 227   0.0000       2.588440        70.4350 
 228   0.0000       2.595818        70.6358 
 229   0.0000       2.608147        70.9713 
 230   0.0000       2.625417        71.4412 
 231   0.0000       2.632271        71.6277 
 232   0.0000       2.650600        72.1265 
 233   0.0000       2.666157        72.5498 
 234   0.0000       2.670576        72.6701 
 235   0.0000       2.680505        72.9402 
 236   0.0000       2.712028        73.7980 
 237   0.0000       2.718654        73.9783 
 238   0.0000       2.733404        74.3797 
 239   0.0000       2.754412        74.9514 
 240   0.0000       2.760149        75.1075 
 241   0.0000       2.780208        75.6533 
 242   0.0000       2.789883        75.9166 
 243   0.0000       2.815831        76.6227 
 244   0.0000       2.823207        76.8234 
 245   0.0000       2.838648        77.2435 
 246   0.0000       2.850862        77.5759 
 247   0.0000       2.862764        77.8998 
 248   0.0000       2.869103        78.0723 
 249   0.0000       2.893788        78.7440 
 250   0.0000       2.900286        78.9208 
 251   0.0000       2.925368        79.6033 
 252   0.0000       2.929303        79.7104 
 253   0.0000       2.940834        80.0242 
 254   0.0000       2.965112        80.6848 
 255   0.0000       2.984261        81.2059 
 256   0.0000       2.998617        81.5965 
 257   0.0000       3.015388        82.0529 
 258   0.0000       3.025572        82.3300 
 259   0.0000       3.033606        82.5486 
 260   0.0000       3.059312        83.2481 
 261   0.0000       3.065749        83.4233 
 262   0.0000       3.083183        83.8977 
 263   0.0000       3.115704        84.7826 
 264   0.0000       3.130326        85.1805 
 265   0.0000       3.137668        85.3803 
 266   0.0000       3.144702        85.5717 
 267   0.0000       3.147290        85.6421 
 268   0.0000       3.160570        86.0035 
 269   0.0000       3.168517        86.2197 
 270   0.0000       3.179875        86.5288 
 271   0.0000       3.189893        86.8014 
 272   0.0000       3.224133        87.7331 
 273   0.0000       3.235500        88.0424 
 274   0.0000       3.251144        88.4681 
 275   0.0000       3.254531        88.5603 
 276   0.0000       3.270360        88.9910 
 277   0.0000       3.301726        89.8445 
 278   0.0000       3.309621        90.0594 
 279   0.0000       3.320580        90.3576 
 280   0.0000       3.337459        90.8169 
 281   0.0000       3.345737        91.0421 
 282   0.0000       3.354134        91.2706 
 283   0.0000       3.369870        91.6988 
 284   0.0000       3.380056        91.9760 
 285   0.0000       3.388777        92.2133 
 286   0.0000       3.394686        92.3741 
 287   0.0000       3.429249        93.3146 
 288   0.0000       3.438265        93.5600 
 289   0.0000       3.461385        94.1891 
 290   0.0000       3.473633        94.5224 
 291   0.0000       3.475387        94.5701 
 292   0.0000       3.485466        94.8444 
 293   0.0000       3.505504        95.3896 
 294   0.0000       3.534025        96.1657 
 295   0.0000       3.550590        96.6165 
 296   0.0000       3.563952        96.9801 
 297   0.0000       3.595998        97.8521 
 298   0.0000       3.617185        98.4286 
 299   0.0000       3.634208        98.8918 
 300   0.0000       3.681746       100.1854 
 301   0.0000       3.700089       100.6846 
 302   0.0000       3.754414       102.1628 
 303   0.0000       3.767198       102.5107 
 304   0.0000       3.775174       102.7277 
 305   0.0000       3.819162       103.9247 
 306   0.0000       3.832716       104.2935 
 307   0.0000       3.856532       104.9416 
 308   0.0000       3.878599       105.5420 
 309   0.0000       3.889356       105.8348 
 310   0.0000       3.917452       106.5993 
 311   0.0000       3.922945       106.7488 
 312   0.0000       3.949551       107.4728 
 313   0.0000       3.985673       108.4557 
 314   0.0000       4.027417       109.5916 
 315   0.0000       4.034284       109.7784 
 316   0.0000       4.040191       109.9392 
 317   0.0000       4.055301       110.3503 
 318   0.0000       4.076389       110.9242 
 319   0.0000       4.097606       111.5015 
 320   0.0000       4.127967       112.3277 
 321   0.0000       4.158491       113.1583 
 322   0.0000       4.167796       113.4115 
 323   0.0000       4.190014       114.0161 
 324   0.0000       4.210175       114.5647 
 325   0.0000       4.263244       116.0088 
 326   0.0000       4.287730       116.6751 
 327   0.0000       4.305463       117.1576 
 328   0.0000       4.323944       117.6605 
 329   0.0000       4.362155       118.7003 
 330   0.0000       4.377260       119.1113 
 331   0.0000       4.428316       120.5006 
 332   0.0000       4.455080       121.2289 
 333   0.0000       4.510142       122.7272 
 334   0.0000       4.523863       123.1006 
 335   0.0000       4.545780       123.6970 
 336   0.0000       4.583067       124.7116 
 337   0.0000       4.611849       125.4948 
 338   0.0000       4.643760       126.3631 
 339   0.0000       4.693240       127.7095 
 340   0.0000       4.699284       127.8740 
 341   0.0000       4.727406       128.6393 
 342   0.0000       4.754157       129.3672 
 343   0.0000       4.800482       130.6278 
 344   0.0000       4.821053       131.1875 
 345   0.0000       4.872371       132.5840 
 346   0.0000       4.902377       133.4005 
 347   0.0000       4.906690       133.5178 
 348   0.0000       4.953478       134.7910 
 349   0.0000       5.004184       136.1708 
 350   0.0000       5.022145       136.6595 
 351   0.0000       5.047098       137.3385 
 352   0.0000       5.139299       139.8474 
 353   0.0000       5.143260       139.9552 
 354   0.0000       5.180318       140.9636 
 355   0.0000       5.186674       141.1366 
 356   0.0000       5.195530       141.3776 
 357   0.0000       5.207065       141.6915 
 358   0.0000       5.245581       142.7395 
 359   0.0000       5.321938       144.8173 
 360   0.0000       5.384107       146.5090 
 361   0.0000       5.409190       147.1916 
 362   0.0000       5.486312       149.2901 
 363   0.0000       5.533990       150.5875 
 364   0.0000       5.556436       151.1983 
 365   0.0000       5.570240       151.5739 
 366   0.0000       5.615910       152.8167 
 367   0.0000       5.812155       158.1568 
 368   0.0000       5.816345       158.2708 
 369   0.0000       6.062999       164.9826 
 370   0.0000       6.080658       165.4631 
 371   0.0000       6.243007       169.8809 
 372   0.0000       6.291171       171.1915 
 373   0.0000       6.326720       172.1588 
 374   0.0000       6.356436       172.9674 
 375   0.0000       6.455546       175.6643 
 376   0.0000       6.630620       180.4283 
 377   0.0000       6.699305       182.2974 
 378   0.0000       6.713506       182.6838 
 379   0.0000       6.798827       185.0055 
 380   0.0000       6.867397       186.8714 
 381   0.0000       6.953571       189.2163 
 382   0.0000       7.021684       191.0697 
 383   0.0000       7.167663       195.0420 
 384   0.0000      22.013725       599.0239 
 385   0.0000      22.187577       603.7547 
 386   0.0000      22.315784       607.2434 
 387   0.0000      22.512493       612.5961 
 388   0.0000      22.568548       614.1214 
 389   0.0000      22.761633       619.3755 
 390   0.0000      22.793712       620.2484 
 391   0.0000      23.288089       633.7011 
 392   0.0000      31.646763       861.1522 
 393   0.0000      43.529434      1184.4961 
 394   0.0000      43.716799      1189.5946 

                    ********************************
                    * MULLIKEN POPULATION ANALYSIS *
                    ********************************

-----------------------
MULLIKEN ATOMIC CHARGES
-----------------------
   0 O :   -0.661450
   1 O :   -0.667645
   2 N :   -0.541219
   3 C :   -0.205884
   4 C :    0.150883
   5 C :   -0.115042
   6 C :   -0.435188
   7 C :   -0.333082
   8 C :    0.111681
   9 C :   -0.320531
  10 C :    0.069237
  11 H :    0.102937
  12 H :    0.069261
  13 H :    0.110141
  14 H :    0.091249
  15 H :    0.019334
  16 H :    0.071436
  17 H :    0.035215
  18 H :    0.216388
  19 H :    0.232278
Sum of atomic charges:   -2.0000000

--------------------------------
MULLIKEN REDUCED ORBITAL CHARGES
--------------------------------
  0 O s       :     3.748889  s :     3.748889
      pz      :     1.658184  p :     4.885646
      px      :     1.752770
      py      :     1.474692
      dz2     :     0.002764  d :     0.025452
      dxz     :     0.001708
      dyz     :     0.006023
      dx2y2   :     0.007372
      dxy     :     0.007585
      f0      :     0.000148  f :     0.001463
      f+1     :     0.000056
      f-1     :     0.000168
      f+2     :     0.000119
      f-2     :     0.000189
      f+3     :     0.000399
      f-3     :     0.000385
  1 O s       :     3.747642  s :     3.747642
      pz      :     1.633853  p :     4.893072
      px      :     1.437168
      py      :     1.822051
      dz2     :     0.003193  d :     0.025467
      dxz     :     0.007636
      dyz     :     0.000717
      dx2y2   :     0.007660
      dxy     :     0.006260
      f0      :     0.000119  f :     0.001464
      f+1     :     0.000257
      f-1     :     0.000016
      f+2     :     0.000281
      f-2     :     0.000097
      f+3     :     0.000349
      f-3     :     0.000346
  2 N s       :     3.527331  s :     3.527331
      pz      :     1.341395  p :     3.969641
      px      :     1.463443
      py      :     1.164803
      dz2     :     0.012319  d :     0.042298
      dxz     :     0.008530
      dyz     :     0.005797
      dx2y2   :     0.011995
      dxy     :     0.003658
      f0      :     0.000410  f :     0.001949
      f+1     :     0.000338
      f-1     :     0.000388
      f+2     :     0.000361
      f-2     :     0.000166
      f+3     :    -0.000004
      f-3     :     0.000290
  3 C s       :     3.173762  s :     3.173762
      pz      :     0.991896  p :     2.935818
      px      :     0.922645
      py      :     1.021276
      dz2     :     0.018304  d :     0.090982
      dxz     :     0.021092
      dyz     :     0.010881
      dx2y2   :     0.020610
      dxy     :     0.020095
      f0      :     0.000603  f :     0.005322
      f+1     :     0.000836
      f-1     :     0.000736
      f+2     :     0.001126
      f-2     :     0.000403
      f+3     :     0.000764
      f-3     :     0.000855
  4 C s       :     3.150507  s :     3.150507
      pz      :     0.987458  p :     2.555900
      px      :     0.774862
      py      :     0.793580
      dz2     :     0.010214  d :     0.133286
      dxz     :     0.019727
      dyz     :     0.030428
      dx2y2   :     0.041714
      dxy     :     0.031201
      f0      :     0.001263  f :     0.009425
      f+1     :     0.000969
      f-1     :     0.000620
      f+2     :     0.000877
      f-2     :     0.001409
      f+3     :     0.001112
      f-3     :     0.003175
  5 C s       :     3.175871  s :     3.175871
      pz      :     0.833622  p :     2.825424
      px      :     1.017309
      py      :     0.974494
      dz2     :     0.035256  d :     0.106332
      dxz     :     0.025164
      dyz     :     0.016895
      dx2y2   :     0.023162
      dxy     :     0.005856
      f0      :     0.001689  f :     0.007416
      f+1     :     0.001397
      f-1     :     0.001441
      f+2     :     0.001254
      f-2     :     0.000847
      f+3     :     0.000497
      f-3     :     0.000291
  6 C s       :     3.350744  s :     3.350744
      pz      :     1.144705  p :     3.005563
      px      :     0.980938
      py      :     0.879920
      dz2     :     0.003988  d :     0.071953
      dxz     :     0.015213
      dyz     :     0.009249
      dx2y2   :     0.021384
      dxy     :     0.022119
      f0      :     0.000990  f :     0.006928
      f+1     :     0.000944
      f-1     :     0.000527
      f+2     :     0.000648
      f-2     :     0.000821
      f+3     :     0.000995
      f-3     :     0.002004
  7 C s       :     3.242415  s :     3.242415
      pz      :     1.109936  p :     2.991076
      px      :     0.959088
      py      :     0.922052
      dz2     :     0.007707  d :     0.092790
      dxz     :     0.019939
      dyz     :     0.012186
      dx2y2   :     0.018254
      dxy     :     0.034706
      f0      :     0.000972  f :     0.006801
      f+1     :     0.000954
      f-1     :     0.000595
      f+2     :     0.000935
      f-2     :     0.000585
      f+3     :     0.000808
      f-3     :     0.001951
  8 C s       :     2.981461  s :     2.981461
      pz      :     0.948179  p :     2.763795
      px      :     0.914966
      py      :     0.900650
      dz2     :     0.009983  d :     0.127726
      dxz     :     0.021902
      dyz     :     0.036523
      dx2y2   :     0.022788
      dxy     :     0.036529
      f0      :     0.001593  f :     0.015337
      f+1     :     0.001082
      f-1     :     0.001193
      f+2     :     0.001461
      f-2     :     0.001785
      f+3     :     0.002174
      f-3     :     0.006048
  9 C s       :     3.264844  s :     3.264844
      pz      :     1.133958  p :     2.973133
      px      :     0.919668
      py      :     0.919507
      dz2     :     0.005246  d :     0.075578
      dxz     :     0.016773
      dyz     :     0.008321
      dx2y2   :     0.019078
      dxy     :     0.026161
      f0      :     0.000968  f :     0.006976
      f+1     :     0.001031
      f-1     :     0.000504
      f+2     :     0.000760
      f-2     :     0.000770
      f+3     :     0.001055
      f-3     :     0.001888
 10 C s       :     3.015296  s :     3.015296
      pz      :     0.949715  p :     2.770759
      px      :     0.887033
      py      :     0.934011
      dz2     :     0.014047  d :     0.129376
      dxz     :     0.039356
      dyz     :     0.015848
      dx2y2   :     0.034464
      dxy     :     0.025661
      f0      :     0.001405  f :     0.015332
      f+1     :     0.001802
      f-1     :     0.000638
      f+2     :     0.001962
      f-2     :     0.001782
      f+3     :     0.002530
      f-3     :     0.005213
 11 H s       :     0.876092  s :     0.876092
      pz      :     0.004923  p :     0.020971
      px      :     0.005597
      py      :     0.010451
 12 H s       :     0.909359  s :     0.909359
      pz      :     0.010343  p :     0.021380
      px      :     0.004939
      py      :     0.006098
 13 H s       :     0.869195  s :     0.869195
      pz      :     0.003886  p :     0.020664
      px      :     0.005022
      py      :     0.011756
 14 H s       :     0.887892  s :     0.887892
      pz      :     0.004721  p :     0.020859
      px      :     0.011673
      py      :     0.004465
 15 H s       :     0.958209  s :     0.958209
      pz      :     0.006439  p :     0.022457
      px      :     0.005472
      py      :     0.010546
 16 H s       :     0.906175  s :     0.906175
      pz      :     0.006340  p :     0.022389
[...]
      dz2     :     0.016549  d :     0.106360
      dxz     :     0.026264
      dyz     :     0.021248
      dx2y2   :     0.021751
      dxy     :     0.020547
      f0      :     0.001265  f :     0.007298
      f+1     :     0.001122
      f-1     :     0.000515
      f+2     :     0.001758
      f-2     :     0.000494
      f+3     :     0.000962
      f-3     :     0.001182
  6 C s       :     3.358945  s :     3.358945
      pz      :     1.161680  p :     3.007946
      px      :     0.976640
      py      :     0.869625
      dz2     :     0.005022  d :     0.074769
      dxz     :     0.015663
      dyz     :     0.008214
      dx2y2   :     0.020528
      dxy     :     0.025342
      f0      :     0.000990  f :     0.006708
      f+1     :     0.000805
      f-1     :     0.000678
      f+2     :     0.000702
      f-2     :     0.000654
      f+3     :     0.001008
      f-3     :     0.001870
  7 C s       :     3.252511  s :     3.252511
      pz      :     1.122463  p :     2.988754
      px      :     0.948475
      py      :     0.917816
      dz2     :     0.005482  d :     0.092187
      dxz     :     0.021479
      dyz     :     0.011943
      dx2y2   :     0.019661
      dxy     :     0.033622
      f0      :     0.001158  f :     0.006669
      f+1     :     0.000772
      f-1     :     0.000490
      f+2     :     0.000939
      f-2     :     0.000544
      f+3     :     0.000792
      f-3     :     0.001973
  8 C s       :     2.986097  s :     2.986097
      pz      :     0.943169  p :     2.753025
      px      :     0.895307
      py      :     0.914549
      dz2     :     0.010891  d :     0.126269
      dxz     :     0.025079
      dyz     :     0.031486
      dx2y2   :     0.022954
      dxy     :     0.035861
      f0      :     0.001492  f :     0.014779
      f+1     :     0.000948
      f-1     :     0.001198
      f+2     :     0.001401
      f-2     :     0.001905
      f+3     :     0.002109
      f-3     :     0.005725
  9 C s       :     3.273738  s :     3.273738
      pz      :     1.152052  p :     2.963958
      px      :     0.896094
      py      :     0.915812
      dz2     :     0.004978  d :     0.075481
      dxz     :     0.018092
      dyz     :     0.006667
      dx2y2   :     0.019518
      dxy     :     0.026226
      f0      :     0.001004  f :     0.006679
      f+1     :     0.000843
      f-1     :     0.000637
      f+2     :     0.000819
      f-2     :     0.000565
      f+3     :     0.001044
      f-3     :     0.001767
 10 C s       :     3.016872  s :     3.016872
      pz      :     0.943682  p :     2.766424
      px      :     0.883683
      py      :     0.939059
      dz2     :     0.010754  d :     0.126464
      dxz     :     0.041503
      dyz     :     0.014334
      dx2y2   :     0.031768
      dxy     :     0.028105
      f0      :     0.001500  f :     0.014686
      f+1     :     0.001422
      f-1     :     0.000704
      f+2     :     0.002100
      f-2     :     0.001187
      f+3     :     0.002217
      f-3     :     0.005554
 11 H s       :     0.891524  s :     0.891524
      pz      :     0.005800  p :     0.020888
      px      :     0.005439
      py      :     0.009649
 12 H s       :     0.908806  s :     0.908806
      pz      :     0.008256  p :     0.020749
      px      :     0.004819
      py      :     0.007674
 13 H s       :     0.883798  s :     0.883798
      pz      :     0.008516  p :     0.020447
      px      :     0.003927
      py      :     0.008004
 14 H s       :     0.876001  s :     0.876001
      pz      :     0.005991  p :     0.020607
      px      :     0.005049
      py      :     0.009567
 15 H s       :     0.957969  s :     0.957969
      pz      :     0.006203  p :     0.022056
      px      :     0.005497
      py      :     0.010356
 16 H s       :     0.901354  s :     0.901354
      pz      :     0.006362  p :     0.021882
      px      :     0.006126
      py      :     0.009394
 17 H s       :     0.944661  s :     0.944661
      pz      :     0.006207  p :     0.022038
      px      :     0.005569
      py      :     0.010262
 18 H s       :     0.733522  s :     0.733522
      pz      :     0.014628  p :     0.034985
      px      :     0.007689
      py      :     0.012668
 19 H s       :     0.733646  s :     0.733646
      pz      :     0.011773  p :     0.034986
      px      :     0.009338
      py      :     0.013874


                     *******************************
                     * LOEWDIN POPULATION ANALYSIS *
                     *******************************

----------------------
LOEWDIN ATOMIC CHARGES
----------------------
   0 O :   -0.253280
   1 O :   -0.259606
   2 N :   -0.207315
   3 C :   -0.265828
   4 C :   -0.239176
   5 C :   -0.355807
   6 C :   -0.226738
   7 C :   -0.253093
   8 C :   -0.435498
   9 C :   -0.263618
  10 C :   -0.438497
  11 H :    0.136058
  12 H :    0.132795
  13 H :    0.125925
  14 H :    0.127032
  15 H :    0.121102
  16 H :    0.128543
  17 H :    0.116545
  18 H :    0.155168
  19 H :    0.155289

-------------------------------
LOEWDIN REDUCED ORBITAL CHARGES
-------------------------------
  0 O s       :     3.450556  s :     3.450556
      pz      :     1.558580  p :     4.739625
      px      :     1.650831
      py      :     1.530214
      dz2     :     0.006527  d :     0.058554
      dxz     :     0.005034
      dyz     :     0.011274
      dx2y2   :     0.017732
      dxy     :     0.017987
      f0      :     0.000403  f :     0.004545
      f+1     :     0.000233
      f-1     :     0.000550
      f+2     :     0.000258
      f-2     :     0.000647
      f+3     :     0.001180
      f-3     :     0.001274
  1 O s       :     3.452665  s :     3.452665
      pz      :     1.562893  p :     4.744135
      px      :     1.467775
      py      :     1.713468
      dz2     :     0.006509  d :     0.058298
      dxz     :     0.015714
      dyz     :     0.000670
      dx2y2   :     0.018517
      dxy     :     0.016888
      f0      :     0.000405  f :     0.004507
      f+1     :     0.000716
      f-1     :     0.000064
      f+2     :     0.000772
      f-2     :     0.000129
      f+3     :     0.001161
      f-3     :     0.001260
  2 N s       :     3.113850  s :     3.113850
      pz      :     1.483987  p :     3.947481
      px      :     1.272012
      py      :     1.191482
      dz2     :     0.011462  d :     0.136114
      dxz     :     0.026043
      dyz     :     0.029823
      dx2y2   :     0.032067
      dxy     :     0.036719
      f0      :     0.001085  f :     0.009870
      f+1     :     0.000905
      f-1     :     0.000845
      f+2     :     0.002328
      f-2     :     0.000791
      f+3     :     0.001652
      f-3     :     0.002264
  3 C s       :     2.785315  s :     2.785315
      pz      :     1.020755  p :     3.047629
      px      :     1.008557
      py      :     1.018317
      dz2     :     0.056135  d :     0.395588
      dxz     :     0.106099
      dyz     :     0.090617
      dx2y2   :     0.073140
      dxy     :     0.069596
      f0      :     0.006094  f :     0.037296
      f+1     :     0.006411
      f-1     :     0.003190
      f+2     :     0.006258
      f-2     :     0.004797
      f+3     :     0.004641
      f-3     :     0.005905
  4 C s       :     2.716643  s :     2.716643
      pz      :     0.914436  p :     2.929229
      px      :     0.963221
      py      :     1.051572
      dz2     :     0.037989  d :     0.537205
      dxz     :     0.068316
      dyz     :     0.107339
      dx2y2   :     0.169326
      dxy     :     0.154236
      f0      :     0.003852  f :     0.056099
      f+1     :     0.004280
      f-1     :     0.004560
      f+2     :     0.005506
      f-2     :     0.009273
      f+3     :     0.008712
      f-3     :     0.019917
  5 C s       :     2.808100  s :     2.808100
      pz      :     1.041415  p :     3.020050
      px      :     0.924479
      py      :     1.054155
      dz2     :     0.070049  d :     0.476913
      dxz     :     0.128884
      dyz     :     0.094581
      dx2y2   :     0.103803
      dxy     :     0.079597
      f0      :     0.008548  f :     0.050745
      f+1     :     0.009060
      f-1     :     0.003259
      f+2     :     0.009612
      f-2     :     0.004508
      f+3     :     0.007355
      f-3     :     0.008402
  6 C s       :     2.779112  s :     2.779112
      pz      :     1.032272  p :     3.040362
      px      :     1.020832
      py      :     0.987259
      dz2     :     0.034346  d :     0.369016
      dxz     :     0.063320
      dyz     :     0.029982
      dx2y2   :     0.116514
      dxy     :     0.124854
      f0      :     0.002774  f :     0.038247
      f+1     :     0.003880
      f-1     :     0.003517
      f+2     :     0.005034
      f-2     :     0.004163
      f+3     :     0.007417
      f-3     :     0.011463
  7 C s       :     2.769363  s :     2.769363
      pz      :     1.005080  p :     3.035391
      px      :     1.032087
      py      :     0.998224
      dz2     :     0.028359  d :     0.407086
      dxz     :     0.080549
      dyz     :     0.041990
      dx2y2   :     0.114786
      dxy     :     0.141401
      f0      :     0.002979  f :     0.041253
      f+1     :     0.004254
      f-1     :     0.003081
      f+2     :     0.007066
      f-2     :     0.003246
      f+3     :     0.007304
      f-3     :     0.013323
  8 C s       :     2.755998  s :     2.755998
      pz      :     0.872399  p :     2.845090
      px      :     1.017377
      py      :     0.955314
      dz2     :     0.061172  d :     0.739703
      dxz     :     0.102429
      dyz     :     0.121644
      dx2y2   :     0.242366
      dxy     :     0.212092
      f0      :     0.005696  f :     0.094707
      f+1     :     0.005242
      f-1     :     0.008897
      f+2     :     0.009843
      f-2     :     0.014569
      f+3     :     0.015519
      f-3     :     0.034940
  9 C s       :     2.787324  s :     2.787324
      pz      :     1.030052  p :     3.063422
      px      :     1.045431
      py      :     0.987939
      dz2     :     0.034600  d :     0.374448
      dxz     :     0.073758
      dyz     :     0.024813
      dx2y2   :     0.109999
      dxy     :     0.131279
      f0      :     0.002813  f :     0.038424
      f+1     :     0.004194
      f-1     :     0.003312
      f+2     :     0.005504
      f-2     :     0.003834
      f+3     :     0.007569
      f-3     :     0.011198
 10 C s       :     2.756355  s :     2.756355
      pz      :     0.876831  p :     2.850673
      px      :     0.933871
      py      :     1.039971
      dz2     :     0.060566  d :     0.737441
      dxz     :     0.160461
      dyz     :     0.061601
      dx2y2   :     0.196456
      dxy     :     0.258357
      f0      :     0.005671  f :     0.094029
      f+1     :     0.009867
      f-1     :     0.004208
      f+2     :     0.016668
      f-2     :     0.007470
      f+3     :     0.016277
      f-3     :     0.033869
 11 H s       :     0.806496  s :     0.806496
      pz      :     0.015436  p :     0.057447
      px      :     0.014234
      py      :     0.027777
 12 H s       :     0.809563  s :     0.809563
      pz      :     0.021892  p :     0.057642
      px      :     0.012871
      py      :     0.022880
 13 H s       :     0.816355  s :     0.816355
      pz      :     0.023119  p :     0.057720
      px      :     0.010544
      py      :     0.024057
 14 H s       :     0.814794  s :     0.814794
      pz      :     0.016461  p :     0.058174
      px      :     0.013309
      py      :     0.028404
 15 H s       :     0.819443  s :     0.819443
      pz      :     0.016897  p :     0.059455
      px      :     0.015305
      py      :     0.027254
 16 H s       :     0.811912  s :     0.811912
      pz      :     0.017490  p :     0.059546
      px      :     0.016849
      py      :     0.025206
 17 H s       :     0.823978  s :     0.823978
      pz      :     0.016839  p :     0.059477
      px      :     0.015402
      py      :     0.027236
 18 H s       :     0.737148  s :     0.737148
      pz      :     0.047701  p :     0.107684
      px      :     0.022230
      py      :     0.037753
 19 H s       :     0.737054  s :     0.737054
      pz      :     0.036511  p :     0.107656
      px      :     0.026051
      py      :     0.045095


                      *****************************
                      * MAYER POPULATION ANALYSIS *
                      *****************************

  NA   - Mulliken gross atomic population
  ZA   - Total nuclear charge
  QA   - Mulliken gross atomic charge
  VA   - Mayer's total valence
  BVA  - Mayer's bonded valence
  FA   - Mayer's free valence

  ATOM       NA         ZA         QA         VA         BVA        FA
  0 O      8.6710     8.0000    -0.6710     1.8325     1.8325    -0.0000
  1 O      8.6762     8.0000    -0.6762     1.8268     1.8268    -0.0000
  2 N      7.5448     7.0000    -0.5448     2.9288     2.9288     0.0000
  3 C      6.1950     6.0000    -0.1950     3.7941     3.7941     0.0000
  4 C      5.8204     6.0000     0.1796     3.5591     3.5591    -0.0000
  5 C      6.1297     6.0000    -0.1297     3.9080     3.9080     0.0000
  6 C      6.4484     6.0000    -0.4484     3.6517     3.6517    -0.0000
  7 C      6.3401     6.0000    -0.3401     3.8480     3.8480    -0.0000
  8 C      5.8802     6.0000     0.1198     3.9123     3.9123    -0.0000
  9 C      6.3199     6.0000    -0.3199     3.6084     3.6084     0.0000
 10 C      5.9244     6.0000     0.0756     3.9270     3.9270    -0.0000
 11 H      0.9124     1.0000     0.0876     0.9864     0.9864    -0.0000
 12 H      0.9296     1.0000     0.0704     0.9841     0.9841    -0.0000
 13 H      0.9042     1.0000     0.0958     0.9813     0.9813    -0.0000
 14 H      0.8966     1.0000     0.1034     0.9769     0.9769    -0.0000
 15 H      0.9800     1.0000     0.0200     1.0295     1.0295     0.0000
 16 H      0.9232     1.0000     0.0768     0.9761     0.9761    -0.0000
 17 H      0.9667     1.0000     0.0333     1.0153     1.0153    -0.0000
 18 H      0.7685     1.0000     0.2315     0.9440     0.9440     0.0000
 19 H      0.7686     1.0000     0.2314     0.9431     0.9431    -0.0000

  Mayer bond orders larger than 0.100000
B(  0-O ,  8-C ) :   1.7178 B(  1-O , 10-C ) :   1.7166 B(  2-N ,  5-C ) :   1.0329 
B(  2-N , 18-H ) :   0.9293 B(  2-N , 19-H ) :   0.9298 B(  3-C ,  4-C ) :   0.9192 
B(  3-C ,  5-C ) :   0.9846 B(  3-C , 11-H ) :   0.9522 B(  3-C , 12-H ) :   0.9360 
B(  4-C ,  6-C ) :   1.2206 B(  4-C ,  7-C ) :   1.3795 B(  5-C , 13-H ) :   0.9543 
B(  5-C , 14-H ) :   0.9569 B(  6-C ,  8-C ) :   1.2694 B(  6-C , 15-H ) :   0.9924 
B(  7-C ,  9-C ) :   1.2601 B(  7-C , 16-H ) :   0.9836 B(  8-C , 10-C ) :   0.9129 
B(  9-C , 10-C ) :   1.2628 B(  9-C , 17-H ) :   0.9856 

-------
TIMINGS
-------

Total SCF time: 0 days 0 hours 0 min 11 sec 

Total time                  ....      11.058 sec
Sum of individual times     ....      10.168 sec  ( 91.9%)

Fock matrix formation       ....       8.863 sec  ( 80.1%)
  Split-RI-J                ....       1.953 sec  ( 22.0% of F)
  XC integration            ....       2.950 sec  ( 33.3% of F)
    Basis function eval.    ....       0.544 sec  ( 18.4% of XC)
    Density eval.           ....       0.775 sec  ( 26.3% of XC)
    XC-Functional eval.     ....       0.050 sec  (  1.7% of XC)
    XC-Potential eval.      ....       0.525 sec  ( 17.8% of XC)
Diagonalization             ....       0.054 sec  (  0.5%)
Density matrix formation    ....       0.029 sec  (  0.3%)
Population analysis         ....       0.053 sec  (  0.5%)
Initial guess               ....       0.087 sec  (  0.8%)
Orbital Transformation      ....       0.000 sec  (  0.0%)
Orbital Orthonormalization  ....       0.070 sec  (  0.6%)
DIIS solution               ....       0.023 sec  (  0.2%)
SOSCF solution              ....       0.430 sec  (  3.9%)
Grid generation             ....       0.629 sec  (  5.7%)

Maximum memory used throughout the entire SCF-calculation: 49.1 MB


-------------------------------------------------------------------------------
                          DFT DISPERSION CORRECTION                            
                                                                               
                              DFTD3 V3.1  Rev 1                                
                          USING Becke-Johnson damping                          
-------------------------------------------------------------------------------
The PBE functional is recognized
Active option DFTDOPT                   ...         4   

molecular C6(AA) [au] = 4287.133501 


            DFT-D V3
 parameters
 s6 scaling factor         :     1.0000 
 a1 scaling factor         :     0.4289 
 s8 scaling factor         :     0.7875 
 a2 scaling factor         :     4.4407 
 ad hoc parameters k1-k3   :    16.0000     1.3333    -4.0000 

 Edisp/kcal,au: -13.052354360646  -0.020800248455 
 E6   /kcal   :  -9.193578915 
 E8   /kcal   :  -3.858775446 
 % E8         :  29.563826870 

-------------------------   ----------------
Dispersion correction           -0.020800248
-------------------------   ----------------


-------------------------   --------------------
FINAL SINGLE POINT ENERGY      -515.302702632893
-------------------------   --------------------

                                *** OPTIMIZATION RUN DONE ***

                            ***************************************
                            *     ORCA property calculations      *
                            ***************************************

                                    ---------------------
                                    Active property flags
                                    ---------------------
   (+) Dipole Moment


------------------------------------------------------------------------------
                       ORCA ELECTRIC PROPERTIES CALCULATION
------------------------------------------------------------------------------

Dipole Moment Calculation                       ... on
Quadrupole Moment Calculation                   ... off
Polarizability Calculation                      ... off
GBWName                                         ... 5_M0005.gbw
Electron density                                ... 5_M0005.scfp
The origin for moment calculation is the CENTER OF MASS  = ( 0.233021, -0.043370  0.068537)

-------------
DIPOLE MOMENT
-------------
                                X             Y             Z
Electronic contribution:     10.09331      -0.97602       0.24445
Nuclear contribution   :    -17.62204       2.41185      -1.49014
                        -----------------------------------------
Total Dipole Moment    :     -7.52872       1.43583      -1.24569
                        -----------------------------------------
Magnitude (a.u.)       :      7.76499
Magnitude (Debye)      :     19.73703



--------------------
Rotational spectrum 
--------------------
 
Rotational constants in cm-1:     0.085404     0.018470     0.015849 
Rotational constants in MHz :  2560.341394   553.712183   475.141540 

 Dipole components along the rotational axes: 
x,y,z [a.u.] :    -7.522920     1.713206    -0.875003 
x,y,z [Debye]:   -19.121744     4.354623    -2.224080 

 
No protocol specified

Timings for individual modules:

Sum of individual times         ...      267.251 sec (=   4.454 min)
GTO integral calculation        ...       14.941 sec (=   0.249 min)   5.6 %
SCF iterations                  ...      190.436 sec (=   3.174 min)  71.3 %
SCF Gradient evaluation         ...       61.355 sec (=   1.023 min)  23.0 %
Geometry relaxation             ...        0.519 sec (=   0.009 min)   0.2 %



                             ****ORCA TERMINATED NORMALLY****
TOTAL RUN TIME: 0 days 0 hours 21 minutes 2 seconds 204 msec
