
                                 *****************
                                 * O   R   C   A *
                                 *****************

                                            #,                                       
                                            ###                                      
                                            ####                                     
                                            #####                                    
                                            ######                                   
                                           ########,                                 
                                     ,,################,,,,,                         
                               ,,#################################,,                 
                          ,,##########################################,,             
                       ,#########################################, ''#####,          
                    ,#############################################,,   '####,        
                  ,##################################################,,,,####,       
                ,###########''''           ''''###############################       
              ,#####''   ,,,,##########,,,,          '''####'''          '####       
            ,##' ,,,,###########################,,,                        '##       
           ' ,,###''''                  '''############,,,                           
         ,,##''                                '''############,,,,        ,,,,,,###''
      ,#''                                            '''#######################'''  
     '                                                          ''''####''''         
             ,#######,   #######,   ,#######,      ##                                
            ,#'     '#,  ##    ##  ,#'     '#,    #''#        ######   ,####,        
            ##       ##  ##   ,#'  ##            #'  '#       #        #'  '#        
            ##       ##  #######   ##           ,######,      #####,   #    #        
            '#,     ,#'  ##    ##  '#,     ,#' ,#      #,         ##   #,  ,#        
             '#######'   ##     ##  '#######'  #'      '#     #####' # '####'        



                  #######################################################
                  #                        -***-                        #
                  #          Department of theory and spectroscopy      #
                  #    Directorship and core code : Frank Neese         #
                  #        Max Planck Institute fuer Kohlenforschung    #
                  #                Kaiser Wilhelm Platz 1               #
                  #                 D-45470 Muelheim/Ruhr               #
                  #                      Germany                        #
                  #                                                     #
                  #                  All rights reserved                #
                  #                        -***-                        #
                  #######################################################


                         Program Version 5.0.2 -  RELEASE  -


 With contributions from (in alphabetic order):
   Daniel Aravena         : Magnetic Suceptibility
   Michael Atanasov       : Ab Initio Ligand Field Theory (pilot matlab implementation)
   Alexander A. Auer      : GIAO ZORA, VPT2 properties, NMR spectrum
   Ute Becker             : Parallelization
   Giovanni Bistoni       : ED, misc. LED, open-shell LED, HFLD
   Martin Brehm           : Molecular dynamics
   Dmytro Bykov           : SCF Hessian
   Vijay G. Chilkuri      : MRCI spin determinant printing, contributions to CSF-ICE
   Dipayan Datta          : RHF DLPNO-CCSD density
   Achintya Kumar Dutta   : EOM-CC, STEOM-CC
   Dmitry Ganyushin       : Spin-Orbit,Spin-Spin,Magnetic field MRCI
   Miquel Garcia          : C-PCM and meta-GGA Hessian, CC/C-PCM, Gaussian charge scheme
   Yang Guo               : DLPNO-NEVPT2, F12-NEVPT2, CIM, IAO-localization
   Andreas Hansen         : Spin unrestricted coupled pair/coupled cluster methods
   Benjamin Helmich-Paris : MC-RPA, TRAH-SCF, COSX integrals
   Lee Huntington         : MR-EOM, pCC
   Robert Izsak           : Overlap fitted RIJCOSX, COSX-SCS-MP3, EOM
   Marcus Kettner         : VPT2
   Christian Kollmar      : KDIIS, OOCD, Brueckner-CCSD(T), CCSD density, CASPT2, CASPT2-K
   Simone Kossmann        : Meta GGA functionals, TD-DFT gradient, OOMP2, MP2 Hessian
   Martin Krupicka        : Initial AUTO-CI
   Lucas Lang             : DCDCAS
   Marvin Lechner         : AUTO-CI (C++ implementation), FIC-MRCC
   Dagmar Lenk            : GEPOL surface, SMD
   Dimitrios Liakos       : Extrapolation schemes; Compound Job, initial MDCI parallelization
   Dimitrios Manganas     : Further ROCIS development; embedding schemes
   Dimitrios Pantazis     : SARC Basis sets
   Anastasios Papadopoulos: AUTO-CI, single reference methods and gradients
   Taras Petrenko         : DFT Hessian,TD-DFT gradient, ASA, ECA, R-Raman, ABS, FL, XAS/XES, NRVS
   Peter Pinski           : DLPNO-MP2, DLPNO-MP2 Gradient
   Christoph Reimann      : Effective Core Potentials
   Marius Retegan         : Local ZFS, SOC
   Christoph Riplinger    : Optimizer, TS searches, QM/MM, DLPNO-CCSD(T), (RO)-DLPNO pert. Triples
   Tobias Risthaus        : Range-separated hybrids, TD-DFT gradient, RPA, STAB
   Michael Roemelt        : Original ROCIS implementation
   Masaaki Saitow         : Open-shell DLPNO-CCSD energy and density
   Barbara Sandhoefer     : DKH picture change effects
   Avijit Sen             : IP-ROCIS
   Kantharuban Sivalingam : CASSCF convergence, NEVPT2, FIC-MRCI
   Bernardo de Souza      : ESD, SOC TD-DFT
   Georgi Stoychev        : AutoAux, RI-MP2 NMR, DLPNO-MP2 response
   Willem Van den Heuvel  : Paramagnetic NMR
   Boris Wezisla          : Elementary symmetry handling
   Frank Wennmohs         : Technical directorship


 We gratefully acknowledge several colleagues who have allowed us to
 interface, adapt or use parts of their codes:
   Stefan Grimme, W. Hujo, H. Kruse, P. Pracht,  : VdW corrections, initial TS optimization,
                  C. Bannwarth, S. Ehlert          DFT functionals, gCP, sTDA/sTD-DF
   Ed Valeev, F. Pavosevic, A. Kumar             : LibInt (2-el integral package), F12 methods
   Garnet Chan, S. Sharma, J. Yang, R. Olivares  : DMRG
   Ulf Ekstrom                                   : XCFun DFT Library
   Mihaly Kallay                                 : mrcc  (arbitrary order and MRCC methods)
   Jiri Pittner, Ondrej Demel                    : Mk-CCSD
   Frank Weinhold                                : gennbo (NPA and NBO analysis)
   Christopher J. Cramer and Donald G. Truhlar   : smd solvation model
   Lars Goerigk                                  : TD-DFT with DH, B97 family of functionals
   V. Asgeirsson, H. Jonsson                     : NEB implementation
   FAccTs GmbH                                   : IRC, NEB, NEB-TS, DLPNO-Multilevel, CI-OPT
                                                   MM, QMMM, 2- and 3-layer-ONIOM, Crystal-QMMM,
                                                   LR-CPCM, SF, NACMEs, symmetry and pop. for TD-DFT,
                                                   nearIR, NL-DFT gradient (VV10), updates on ESD,
                                                   ML-optimized integration grids
   S Lehtola, MJT Oliveira, MAL Marques          : LibXC Library
   Liviu Ungur et al                             : ANISO software


 Your calculation uses the libint2 library for the computation of 2-el integrals
 For citations please refer to: http://libint.valeyev.net

 Your ORCA version has been built with support for libXC version: 5.1.0
 For citations please refer to: https://tddft.org/programs/libxc/

 This ORCA versions uses:
   CBLAS   interface :  Fast vector & matrix operations
   LAPACKE interface :  Fast linear algebra routines
   SCALAPACK package :  Parallel linear algebra routines
   Shared memory     :  Shared parallel matrices
   BLAS/LAPACK       :  OpenBLAS 0.3.15  USE64BITINT DYNAMIC_ARCH NO_AFFINITY Haswell SINGLE_THREADED
        Core in use  :  Haswell
   Copyright (c) 2011-2014, The OpenBLAS Project


Your calculation utilizes the atom-pairwise dispersion correction
with the Becke-Johnson damping scheme (D3BJ)
Cite in your paper:
S.Grimme, S.Ehrlich, L.Goerigk, J Comput Chem, (2011), 32, 1456–1465 
S.Grimme, J.Antony, S.Ehrlich and H.Krieg, J.Chem.Phys., 132, (2010), 154104 
   

================================================================================

----- Orbital basis set information -----
Your calculation utilizes the basis: def2-TZVP
   F. Weigend and R. Ahlrichs, Phys. Chem. Chem. Phys. 7, 3297 (2005).

----- AuxJ basis set information -----
Your calculation utilizes the auxiliary basis: def2/J
   F. Weigend, Phys. Chem. Chem. Phys. 8, 1057 (2006).

================================================================================
                                        WARNINGS
                       Please study these warnings very carefully!
================================================================================

WARNING: Old DensityContainer found on disk!
         Will remove this file - 
         If you want to keep old densities, please start your calculation with a different basename. 


WARNING: The environment variable RSH_COMMAND is not set!
  ===> : All Displacements for the Numerical Hessian or Gradient calculation
         will be started on localhost

INFO   : the flag for use of the SHARK integral package has been found!

================================================================================
                                       INPUT FILE
================================================================================
NAME = ex1.inp
|  1> ! PBE D3 def2-TZVP opt numfreq PModel NOAUTOSTART cpcm(water)
|  2> %pal nprocs=16 end
|  3> %geom maxiter=150 end
|  4> %base "deprotonated"
|  5> *xyz -1 1
|  6>   O   2.38664934776350     -1.82908237970919     -0.02736246502156
|  7>   O   3.27381811761539      0.52694801315679     -0.50104716237702
|  8>   N   -3.09739678654441      0.38914154943036     -1.33562441656540
|  9>   C   -2.17962520543252     -0.14435290383849      0.98112280369746
| 10>   C   -0.72952825486907      0.07748361690109      0.63220784740398
| 11>   C   -3.03523259076780     -0.57695637280214     -0.22835149331452
| 12>   C   0.14923850720903     -1.02580844196276      0.49629392984480
| 13>   C   -0.22372505439718      1.35556561781346      0.36919304275567
| 14>   C   1.46510313275629     -0.82205637130933      0.11787967903702
| 15>   C   1.11458569791968      1.56645495605175     -0.01549767887374
| 16>   C   2.01186691285937      0.48408961771762     -0.15809046442357
| 17>   H   -2.60905158672440      0.78355667947821      1.39587560503543
| 18>   H   -2.27351236925255     -0.91998202145795      1.76167244960407
| 19>   H   -4.06553569623025     -0.77978522669065      0.10640501215840
| 20>   H   -2.63610172952538     -1.52522860724966     -0.62541552898701
| 21>   H   -0.20833970621655     -2.04151724959145      0.69420687370926
| 22>   H   -0.88995353388385      2.21749987483451      0.47402490867983
| 23>   H   1.47784653256856      2.58098727687918     -0.20590598985807
| 24>   H   -2.13606082860391      0.64614248204889     -1.58665548686895
| 25>   H   -3.51405502822472      1.25817601752003     -0.98583319160425
| 26>   H   3.18124912198076     -1.26564412722027     -0.29669327403182
| 27> *
| 28> 
| 29>                          ****END OF INPUT****
================================================================================

                       *****************************
                       * Geometry Optimization Run *
                       *****************************

Geometry optimization settings:
Update method            Update   .... BFGS
Choice of coordinates    CoordSys .... Z-matrix Internals
Initial Hessian          InHess   .... Almoef's Model

Convergence Tolerances:
Energy Change            TolE     ....  5.0000e-06 Eh
Max. Gradient            TolMAXG  ....  3.0000e-04 Eh/bohr
RMS Gradient             TolRMSG  ....  1.0000e-04 Eh/bohr
Max. Displacement        TolMAXD  ....  4.0000e-03 bohr
RMS Displacement         TolRMSD  ....  2.0000e-03 bohr
Strict Convergence                ....  False
------------------------------------------------------------------------------
                        ORCA OPTIMIZATION COORDINATE SETUP
------------------------------------------------------------------------------

The optimization will be done in new redundant internal coordinates
Making redundant internal coordinates   ...  (new redundants) done
Evaluating the initial hessian          ...  (Almloef) done
Evaluating the coordinates              ...  done
Calculating the B-matrix                .... done
Calculating the G-matrix                .... done
Diagonalizing the G-matrix              .... done
Small eigenvalue found = 1.894e-02
The first mode is                       ....   45
The number of degrees of freedom        ....   57

    -----------------------------------------------------------------
                    Redundant Internal Coordinates


    -----------------------------------------------------------------
         Definition                    Initial Value    Approx d2E/dq
    -----------------------------------------------------------------
      1. B(C   4,C   3)                  1.5079         0.405183   
      2. B(C   5,N   2)                  1.4708         0.415871   
      3. B(C   5,C   3)                  1.5434         0.355650   
      4. B(C   6,C   4)                  1.4170         0.565749   
      5. B(C   7,C   4)                  1.3995         0.603441   
      6. B(C   8,C   6)                  1.3843         0.638081   
      7. B(C   8,O   0)                  1.3728         0.596205   
      8. B(C   9,C   7)                  1.4084         0.584000   
      9. B(C  10,C   9)                  1.4131         0.573881   
     10. B(C  10,C   8)                  1.4426         0.514992   
     11. B(C  10,O   1)                  1.3084         0.755131   
     12. B(H  11,C   3)                  1.1034         0.342830   
     13. B(H  12,C   3)                  1.1044         0.341561   
     14. B(H  13,C   5)                  1.1021         0.344385   
     15. B(H  14,C   5)                  1.1028         0.343549   
     16. B(H  15,C   6)                  1.0948         0.353741   
     17. B(H  16,C   7)                  1.0944         0.354285   
     18. B(H  17,C   9)                  1.0943         0.354458   
     19. B(H  18,N   2)                  1.0263         0.407601   
     20. B(H  19,N   2)                  1.0253         0.409103   
     21. B(H  20,O   0)                  1.0106         0.431694   
     22. A(C   8,O   0,H  20)           98.4548         0.356149   
     23. A(H  18,N   2,H  19)          104.5879         0.297711   
     24. A(C   5,N   2,H  19)          108.4869         0.332255   
     25. A(C   5,N   2,H  18)          108.0017         0.332053   
     26. A(C   4,C   3,H  11)          109.7267         0.326033   
     27. A(C   5,C   3,H  11)          108.3326         0.319140   
     28. A(H  11,C   3,H  12)          106.9700         0.286233   
     29. A(C   5,C   3,H  12)          108.0518         0.318947   
     30. A(C   4,C   3,C   5)          113.1431         0.365349   
     31. A(C   4,C   3,H  12)          110.4029         0.325834   
     32. A(C   3,C   4,C   6)          120.2670         0.395964   
     33. A(C   6,C   4,C   7)          117.9630         0.424923   
     34. A(C   3,C   4,C   7)          121.6964         0.400478   
     35. A(C   3,C   5,H  14)          108.8160         0.319249   
     36. A(H  13,C   5,H  14)          106.8248         0.286695   
     37. A(N   2,C   5,H  14)          108.0018         0.325584   
     38. A(C   3,C   5,H  13)          109.3779         0.319376   
     39. A(N   2,C   5,H  13)          108.0610         0.325715   
     40. A(N   2,C   5,C   3)          115.4218         0.364695   
     41. A(C   8,C   6,H  15)          119.7639         0.353563   
     42. A(C   4,C   6,H  15)          120.1614         0.346455   
     43. A(C   4,C   6,C   8)          120.0742         0.429194   
     44. A(C   9,C   7,H  16)          119.1234         0.348402   
     45. A(C   4,C   7,H  16)          118.7661         0.350332   
     46. A(C   4,C   7,C   9)          122.1088         0.427346   
     47. A(O   0,C   8,C   6)          123.9926         0.430423   
     48. A(C   6,C   8,C  10)          123.0822         0.422033   
     49. A(O   0,C   8,C  10)          112.9243         0.414257   
     50. A(C  10,C   9,H  17)          118.8006         0.347407   
     51. A(C   7,C   9,H  17)          120.1187         0.348431   
     52. A(C   7,C   9,C  10)          121.0802         0.423522   
     53. A(C   8,C  10,C   9)          115.6911         0.414135   
     54. A(O   1,C  10,C   9)          127.8621         0.440639   
     55. A(O   1,C  10,C   8)          116.4455         0.432127   
     56. D(C   6,C   4,C   3,C   5)    -79.2814         0.012170   
     57. D(C   6,C   4,C   3,H  11)    159.6108         0.012170   
     58. D(C   7,C   4,C   3,C   5)     97.5328         0.012170   
     59. D(C   7,C   4,C   3,H  12)   -141.2331         0.012170   
     60. D(C   7,C   4,C   3,H  11)    -23.5750         0.012170   
     61. D(C   6,C   4,C   3,H  12)     41.9526         0.012170   
     62. D(N   2,C   5,C   3,H  11)     60.5992         0.010166   
     63. D(C   3,C   5,N   2,H  18)     51.8611         0.014749   
     64. D(H  14,C   5,N   2,H  19)    177.0367         0.014749   
     65. D(H  14,C   5,N   2,H  18)    -70.1404         0.014749   
     66. D(H  14,C   5,C   3,H  11)   -177.8367         0.010166   
     67. D(N   2,C   5,C   3,C   4)    -61.2932         0.010166   
     68. D(H  13,C   5,C   3,H  12)     54.0781         0.010166   
     69. D(N   2,C   5,C   3,H  12)    176.1549         0.010166   
     70. D(H  13,C   5,C   3,H  11)    -61.4776         0.010166   
     71. D(C   3,C   5,N   2,H  19)    -60.9619         0.014749   
     72. D(H  13,C   5,N   2,H  18)    174.6403         0.014749   
     73. D(H  14,C   5,C   3,C   4)     60.2708         0.010166   
     74. D(H  13,C   5,N   2,H  19)     61.8174         0.014749   
     75. D(H  14,C   5,C   3,H  12)    -62.2810         0.010166   
     76. D(H  13,C   5,C   3,C   4)    176.6300         0.010166   
     77. D(H  15,C   6,C   4,C   7)    179.9338         0.021942   
     78. D(H  15,C   6,C   4,C   3)     -3.1350         0.021942   
     79. D(C   8,C   6,C   4,C   3)    177.1311         0.021942   
     80. D(C   8,C   6,C   4,C   7)      0.1999         0.021942   
     81. D(H  16,C   7,C   4,C   6)   -179.7563         0.025119   
     82. D(H  16,C   7,C   4,C   3)      3.3588         0.025119   
     83. D(C   9,C   7,C   4,C   6)     -0.2287         0.025119   
     84. D(C   9,C   7,C   4,C   3)   -177.1135         0.025119   
     85. D(C  10,C   8,O   0,H  20)     -0.0743         0.025940   
     86. D(C   6,C   8,O   0,H  20)   -179.7216         0.025940   
     87. D(C  10,C   8,C   6,H  15)   -179.8997         0.028277   
     88. D(C  10,C   8,C   6,C   4)     -0.1647         0.028277   
     89. D(O   0,C   8,C   6,H  15)     -0.2874         0.028277   
     90. D(O   0,C   8,C   6,C   4)    179.4476         0.028277   
     91. D(H  17,C   9,C   7,H  16)     -0.0106         0.023447   
     92. D(H  17,C   9,C   7,C   4)   -179.5366         0.023447   
     93. D(C  10,C   9,C   7,H  16)    179.7438         0.023447   
     94. D(C  10,C   9,C   7,C   4)      0.2178         0.023447   
     95. D(C   8,C  10,C   9,C   7)     -0.1624         0.022605   
     96. D(O   1,C  10,C   9,H  17)      0.0285         0.022605   
     97. D(O   1,C  10,C   9,C   7)   -179.7291         0.022605   
     98. D(C   9,C  10,C   8,C   6)      0.1413         0.018080   
     99. D(C   9,C  10,C   8,O   0)   -179.5097         0.018080   
    100. D(O   1,C  10,C   8,C   6)    179.7592         0.018080   
    101. D(C   8,C  10,C   9,H  17)    179.5951         0.022605   
    102. D(O   1,C  10,C   8,O   0)      0.1082         0.018080   
    -----------------------------------------------------------------

Number of atoms                         .... 21
Number of degrees of freedom            .... 102

         *************************************************************
         *                GEOMETRY OPTIMIZATION CYCLE   1            *
         *************************************************************
---------------------------------
CARTESIAN COORDINATES (ANGSTROEM)
---------------------------------
  O      2.386649   -1.829082   -0.027362
  O      3.273818    0.526948   -0.501047
  N     -3.097397    0.389142   -1.335624
  C     -2.179625   -0.144353    0.981123
  C     -0.729528    0.077484    0.632208
  C     -3.035233   -0.576956   -0.228351
  C      0.149239   -1.025808    0.496294
  C     -0.223725    1.355566    0.369193
  C      1.465103   -0.822056    0.117880
  C      1.114586    1.566455   -0.015498
  C      2.011867    0.484090   -0.158090
  H     -2.609052    0.783557    1.395876
  H     -2.273512   -0.919982    1.761672
  H     -4.065536   -0.779785    0.106405
  H     -2.636102   -1.525229   -0.625416
  H     -0.208340   -2.041517    0.694207
  H     -0.889954    2.217500    0.474025
  H      1.477847    2.580987   -0.205906
  H     -2.136061    0.646142   -1.586655
  H     -3.514055    1.258176   -0.985833
  H      3.181249   -1.265644   -0.296693

----------------------------
CARTESIAN COORDINATES (A.U.)
----------------------------
  NO LB      ZA    FRAG     MASS         X           Y           Z
   0 O     8.0000    0    15.999    4.510114   -3.456465   -0.051708
   1 O     8.0000    0    15.999    6.186620    0.995787   -0.946842
   2 N     7.0000    0    14.007   -5.853232    0.735371   -2.523964
   3 C     6.0000    0    12.011   -4.118895   -0.272787    1.854053
   4 C     6.0000    0    12.011   -1.378609    0.146423    1.194700
   5 C     6.0000    0    12.011   -5.735758   -1.090290   -0.431522
   6 C     6.0000    0    12.011    0.282020   -1.938497    0.937860
   7 C     6.0000    0    12.011   -0.422779    2.561648    0.697674
   8 C     6.0000    0    12.011    2.768644   -1.553461    0.222760
   9 C     6.0000    0    12.011    2.106262    2.960171   -0.029286
  10 C     6.0000    0    12.011    3.801877    0.914797   -0.298748
  11 H     1.0000    0     1.008   -4.930393    1.480708    2.637823
  12 H     1.0000    0     1.008   -4.296316   -1.738514    3.329078
  13 H     1.0000    0     1.008   -7.682749   -1.473581    0.201076
  14 H     1.0000    0     1.008   -4.981510   -2.882264   -1.181864
  15 H     1.0000    0     1.008   -0.393705   -3.857908    1.311861
  16 H     1.0000    0     1.008   -1.681768    4.190467    0.895777
  17 H     1.0000    0     1.008    2.792725    4.877359   -0.389106
  18 H     1.0000    0     1.008   -4.036570    1.221032   -2.998344
  19 H     1.0000    0     1.008   -6.640602    2.377608   -1.862955
  20 H     1.0000    0     1.008    6.011690   -2.391721   -0.560669

--------------------------------
INTERNAL COORDINATES (ANGSTROEM)
--------------------------------
 O      0   0   0     0.000000000000     0.00000000     0.00000000
 O      1   0   0     2.561703501738     0.00000000     0.00000000
 N      1   2   0     6.058616074392    86.37743762     0.00000000
 C      3   1   2     2.548379620339    53.20599139   255.65006985
 C      4   3   1     1.507890664038    96.03736641    27.92162231
 C      3   1   2     1.470803491002    63.81245126   218.50762890
 C      5   4   3     1.417023987896   120.26696218   253.34770614
 C      5   4   3     1.399466779216   121.69635971    70.16193199
 C      1   2   3     1.372750555782    64.99915520   336.06092076
 C      8   5   4     1.408380961976   122.10884886   182.88646685
 C      2   1   3     1.308425382632    65.63096452    23.99996206
 H      4   3   1     1.103378039467    91.46172847   137.93413044
 H      4   3   1     1.104388100875   139.37090987   256.49674530
 H      6   3   1     1.102146066115   108.06104834   184.90293989
 H      6   3   1     1.102808017492   108.00175957   300.12226365
 H      7   5   4     1.094849804293   120.16142354   356.86498239
 H      8   5   4     1.094431711172   118.76610502     3.35884774
 H     10   8   5     1.094298674442   120.11870267   180.46344742
 H      3   1   2     1.026271358683    45.30059255    24.71694729
 H      3   1   2     1.025270158616   127.19384151   312.54343455
 H      1   2   3     1.010638684316    33.45565182   156.02558641

---------------------------
INTERNAL COORDINATES (A.U.)
---------------------------
 O      0   0   0     0.000000000000     0.00000000     0.00000000
 O      1   0   0     4.840918054592     0.00000000     0.00000000
 N      1   2   0    11.449125131174    86.37743762     0.00000000
 C      3   1   2     4.815739567708    53.20599139   255.65006985
 C      4   3   1     2.849500394928    96.03736641    27.92162231
 C      3   1   2     2.779415794809    63.81245126   218.50762890
 C      5   4   3     2.677787262320   120.26696218   253.34770614
 C      5   4   3     2.644608946238   121.69635971    70.16193199
 C      1   2   3     2.594122600615    64.99915520   336.06092076
 C      8   5   4     2.661454310364   122.10884886   182.88646685
 C      2   1   3     2.472565639846    65.63096452    23.99996206
 H      4   3   1     2.085082316776    91.46172847   137.93413044
 H      4   3   1     2.086991056215   139.37090987   256.49674530
 H      6   3   1     2.082754224535   108.06104834   184.90293989
 H      6   3   1     2.084005131353   108.00175957   300.12226365
 H      7   5   4     2.068966287891   120.16142354   356.86498239
 H      8   5   4     2.068176206394   118.76610502     3.35884774
 H     10   8   5     2.067924803408   120.11870267   180.46344742
 H      3   1   2     1.939371806999    45.30059255    24.71694729
 H      3   1   2     1.937479813066   127.19384151   312.54343455
 H      1   2   3     1.909830333704    33.45565182   156.02558641

---------------------
BASIS SET INFORMATION
---------------------
There are 4 groups of distinct atoms

 Group   1 Type O   : 11s6p2d1f contracted to 5s3p2d1f pattern {62111/411/11/1}
 Group   2 Type N   : 11s6p2d1f contracted to 5s3p2d1f pattern {62111/411/11/1}
 Group   3 Type C   : 11s6p2d1f contracted to 5s3p2d1f pattern {62111/411/11/1}
 Group   4 Type H   : 5s1p contracted to 3s1p pattern {311/1}

Atom   0O    basis set group =>   1
Atom   1O    basis set group =>   1
Atom   2N    basis set group =>   2
Atom   3C    basis set group =>   3
Atom   4C    basis set group =>   3
Atom   5C    basis set group =>   3
Atom   6C    basis set group =>   3
Atom   7C    basis set group =>   3
Atom   8C    basis set group =>   3
Atom   9C    basis set group =>   3
Atom  10C    basis set group =>   3
Atom  11H    basis set group =>   4
Atom  12H    basis set group =>   4
Atom  13H    basis set group =>   4
Atom  14H    basis set group =>   4
Atom  15H    basis set group =>   4
Atom  16H    basis set group =>   4
Atom  17H    basis set group =>   4
Atom  18H    basis set group =>   4
Atom  19H    basis set group =>   4
Atom  20H    basis set group =>   4
---------------------------------
AUXILIARY/J BASIS SET INFORMATION
---------------------------------
There are 4 groups of distinct atoms

 Group   1 Type O   : 12s5p4d2f1g contracted to 6s4p3d1f1g pattern {711111/2111/211/2/1}
 Group   2 Type N   : 12s5p4d2f1g contracted to 6s4p3d1f1g pattern {711111/2111/211/2/1}
 Group   3 Type C   : 12s5p4d2f1g contracted to 6s4p3d1f1g pattern {711111/2111/211/2/1}
 Group   4 Type H   : 5s2p1d contracted to 3s1p1d pattern {311/2/1}

Atom   0O    basis set group =>   1
Atom   1O    basis set group =>   1
Atom   2N    basis set group =>   2
Atom   3C    basis set group =>   3
Atom   4C    basis set group =>   3
Atom   5C    basis set group =>   3
Atom   6C    basis set group =>   3
Atom   7C    basis set group =>   3
Atom   8C    basis set group =>   3
Atom   9C    basis set group =>   3
Atom  10C    basis set group =>   3
Atom  11H    basis set group =>   4
Atom  12H    basis set group =>   4
Atom  13H    basis set group =>   4
Atom  14H    basis set group =>   4
Atom  15H    basis set group =>   4
Atom  16H    basis set group =>   4
Atom  17H    basis set group =>   4
Atom  18H    basis set group =>   4
Atom  19H    basis set group =>   4
Atom  20H    basis set group =>   4
No protocol specified


           ************************************************************
           *        Program running with 16 parallel MPI-processes    *
           *              working on a common directory               *
           ************************************************************
------------------------------------------------------------------------------
                           ORCA GTO INTEGRAL CALCULATION
                           -- RI-GTO INTEGRALS CHOSEN --
------------------------------------------------------------------------------
------------------------------------------------------------------------------
                   ___                                                        
                  /   \      - P O W E R E D   B Y -                         
                 /     \                                                     
                 |  |  |   _    _      __       _____    __    __             
                 |  |  |  | |  | |    /  \     |  _  \  |  |  /  |          
                  \  \/   | |  | |   /    \    | | | |  |  | /  /          
                 / \  \   | |__| |  /  /\  \   | |_| |  |  |/  /          
                |  |  |   |  __  | /  /__\  \  |    /   |      \           
                |  |  |   | |  | | |   __   |  |    \   |  |\   \          
                \     /   | |  | | |  |  |  |  | |\  \  |  | \   \       
                 \___/    |_|  |_| |__|  |__|  |_| \__\ |__|  \__/        
                                                                              
                      - O R C A' S   B I G   F R I E N D -                    
                                      &                                       
                       - I N T E G R A L  F E E D E R -                       
                                                                              
 v1 FN, 2020, v2 2021                                                         
------------------------------------------------------------------------------


Reading SHARK input file deprotonated.SHARKINP.tmp ... ok
----------------------
SHARK INTEGRAL PACKAGE
----------------------

Number of atoms                             ...     21
Number of basis functions                   ...    401
Number of shells                            ...    161
Maximum angular momentum                    ...      3
Integral batch strategy                     ... SHARK/LIBINT Hybrid
RI-J (if used) integral strategy            ... SPLIT-RIJ (Revised 2003 algorithm where possible)
Printlevel                                  ...      1
Contraction scheme used                     ... SEGMENTED contraction
Coulomb Range Separation                    ... NOT USED
Exchange Range Separation                   ... NOT USED
Finite Nucleus Model                        ... NOT USED
Auxiliary Coulomb fitting basis             ... AVAILABLE
   # of basis functions in Aux-J            ...    649
   # of shells in Aux-J                     ...    215
   Maximum angular momentum in Aux-J        ...      4
Auxiliary J/K fitting basis                 ... NOT available
Auxiliary Correlation fitting basis         ... NOT available
Auxiliary 'external' fitting basis          ... NOT available
Integral threshold                          ...     2.500000e-11
Primitive cut-off                           ...     2.500000e-12
Primitive pair pre-selection threshold      ...     2.500000e-12

Calculating pre-screening integrals         ... done (  0.1 sec) Dimension = 161
Organizing shell pair data                  ... done (  0.3 sec)
Shell pair information
Total number of shell pairs                 ...     13041
Shell pairs after pre-screening             ...     11161
Total number of primitive shell pairs       ...     39612
Primitive shell pairs kept                  ...     24510
          la=0 lb=0:   3009 shell pairs
          la=1 lb=0:   3191 shell pairs
          la=1 lb=1:    863 shell pairs
          la=2 lb=0:   1586 shell pairs
          la=2 lb=1:    842 shell pairs
          la=2 lb=2:    221 shell pairs
          la=3 lb=0:    768 shell pairs
          la=3 lb=1:    416 shell pairs
          la=3 lb=2:    208 shell pairs
          la=3 lb=3:     57 shell pairs

Calculating one electron integrals          ... done (  0.0 sec)
Calculating RI/J V-Matrix + Cholesky decomp.... done (  0.0 sec)
Calculating Nuclear repulsion               ... done (  0.0 sec) ENN=    587.720960566028 Eh

SHARK setup successfully completed in   0.7 seconds

Maximum memory used throughout the entire GTOINT-calculation: 24.1 MB
No protocol specified


           ************************************************************
           *        Program running with 16 parallel MPI-processes    *
           *              working on a common directory               *
           ************************************************************
-------------------------------------------------------------------------------
                                 ORCA SCF
-------------------------------------------------------------------------------

------------
SCF SETTINGS
------------
Hamiltonian:
 Density Functional     Method          .... DFT(GTOs)
 Exchange Functional    Exchange        .... PBE
   PBE kappa parameter   XKappa         ....  0.804000
   PBE mue parameter    XMuePBE         ....  0.219520
 Correlation Functional Correlation     .... PBE
   PBE beta parameter  CBetaPBE         ....  0.066725
 LDA part of GGA corr.  LDAOpt          .... PW91-LDA
 Gradients option       PostSCFGGA      .... off
   Density functional embedding theory  .... OFF
   NL short-range parameter             ....  6.400000
 RI-approximation to the Coulomb term is turned on
   Number of AuxJ basis functions       .... 649


General Settings:
 Integral files         IntName         .... deprotonated
 Hartree-Fock type      HFTyp           .... RHF
 Total Charge           Charge          ....   -1
 Multiplicity           Mult            ....    1
 Number of Electrons    NEL             ....   82
 Basis Dimension        Dim             ....  401
 Nuclear Repulsion      ENuc            ....    587.7209605660 Eh

Convergence Acceleration:
 DIIS                   CNVDIIS         .... on
   Start iteration      DIISMaxIt       ....    12
   Startup error        DIISStart       ....  0.200000
   # of expansion vecs  DIISMaxEq       ....     5
   Bias factor          DIISBfac        ....   1.050
   Max. coefficient     DIISMaxC        ....  10.000
 Trust-Rad. Augm. Hess. CNVTRAH         .... auto
   Auto Start mean grad. ratio tolernc. ....  1.125000
   Auto Start start iteration           ....    20
   Auto Start num. interpolation iter.  ....    10
   Max. Number of Micro iterations      ....    16
   Max. Number of Macro iterations      .... Maxiter - #DIIS iter
   Number of Davidson start vectors     ....     2
   Converg. threshold I  (grad. norm)   ....   1.000e-05
   Converg. threshold II (energy diff.) ....   1.000e-08
   Grad. Scal. Fac. for Micro threshold ....   0.100
   Minimum threshold for Micro iter.    ....   0.010
   NR start threshold (gradient norm)   ....   0.001
   Initial trust radius                 ....   0.400
   Minimum AH scaling param. (alpha)    ....   1.000
   Maximum AH scaling param. (alpha)    .... 1000.000
   Orbital update algorithm             .... Taylor
   White noise on init. David. guess    .... on
   Maximum white noise                  ....   0.010
   Quad. conv. algorithm                .... NR
 SOSCF                  CNVSOSCF        .... on
   Start iteration      SOSCFMaxIt      ....   150
   Startup grad/error   SOSCFStart      ....  0.003300
 Level Shifting         CNVShift        .... on
   Level shift para.    LevelShift      ....    0.2500
   Turn off err/grad.   ShiftErr        ....    0.0010
 Zerner damping         CNVZerner       .... off
 Static damping         CNVDamp         .... on
   Fraction old density DampFac         ....    0.7000
   Max. Damping (<1)    DampMax         ....    0.9800
   Min. Damping (>=0)   DampMin         ....    0.0000
   Turn off err/grad.   DampErr         ....    0.1000
 Fernandez-Rico         CNVRico         .... off

SCF Procedure:
 Maximum # iterations   MaxIter         ....   125
 SCF integral mode      SCFMode         .... Direct
   Integral package                     .... SHARK and LIBINT hybrid scheme
 Reset frequency        DirectResetFreq ....    20
 Integral Threshold     Thresh          ....  2.500e-11 Eh
 Primitive CutOff       TCut            ....  2.500e-12 Eh

Convergence Tolerance:
 Convergence Check Mode ConvCheckMode   .... Total+1el-Energy
 Convergence forced     ConvForced      .... 0
 Energy Change          TolE            ....  1.000e-08 Eh
 1-El. energy change                    ....  1.000e-05 Eh
 Orbital Gradient       TolG            ....  1.000e-05
 Orbital Rotation angle TolX            ....  1.000e-05
 DIIS Error             TolErr          ....  5.000e-07


Diagonalization of the overlap matrix:
Smallest eigenvalue                        ... 1.074e-05
Time for diagonalization                   ...    0.036 sec
Threshold for overlap eigenvalues          ... 1.000e-08
Number of eigenvalues below threshold      ... 0
Time for construction of square roots      ...    0.025 sec
Total time needed                          ...    0.062 sec

Time for model grid setup =    0.102 sec

------------------------------
INITIAL GUESS: MODEL POTENTIAL
------------------------------
Loading Hartree-Fock densities                     ... done
Calculating cut-offs                               ... done
Initializing the effective Hamiltonian             ... done
Setting up the integral package (SHARK)            ... done
Starting the Coulomb interaction                   ... done (   0.1 sec)
Reading the grid                                   ... done
Mapping shells                                     ... done
Starting the XC term evaluation                    ... done (   0.1 sec)
  promolecular density results
     # of electrons  =     80.993991302
     EX              =    -66.659179041
     EC              =     -2.699659940
     EX+EC           =    -69.358838981
Transforming the Hamiltonian                       ... done (   0.0 sec)
Diagonalizing the Hamiltonian                      ... done (   0.0 sec)
Back transforming the eigenvectors                 ... done (   0.0 sec)
Now organizing SCF variables                       ... done
                      ------------------
                      INITIAL GUESS DONE (   0.4 sec)
                      ------------------
-------------------
DFT GRID GENERATION
-------------------

General Integration Accuracy     IntAcc      ... 4.388
Radial Grid Type                 RadialGrid  ... OptM3 with GC (2021)
Angular Grid (max. ang.)         AngularGrid ... 4 (Lebedev-302)
Angular grid pruning method      GridPruning ... 4 (adaptive)
Weight generation scheme         WeightScheme... Becke
Basis function cutoff            BFCut       ... 1.0000e-11
Integration weight cutoff        WCut        ... 1.0000e-14
Angular grids for H and He will be reduced by one unit
Partially contracted basis set               ... off
Rotationally invariant grid construction     ... off

Total number of grid points                  ...    98132
Total number of batches                      ...     1543
Average number of points per batch           ...       63
Average number of grid points per atom       ...     4673
Time for grid setup =    0.702 sec


--------------------
CPCM SOLVATION MODEL
--------------------
CPCM parameters:
  Epsilon                                         ...      80.4000
  Refrac                                          ...       1.3300
  Rsolv                                           ...       1.3000
  Surface type                                    ... GAUSSIAN VDW
  Epsilon function type                           ...         CPCM
Radii:
 Radius for O  used is    3.4469 Bohr (=   1.8240 Ang.)
 Radius for N  used is    3.5149 Bohr (=   1.8600 Ang.)
 Radius for C  used is    3.8550 Bohr (=   2.0400 Ang.)
 Radius for H  used is    2.4944 Bohr (=   1.3200 Ang.)
Calculating surface                               ...        done! (  0.0s)
GEPOL surface points                              ...         1176
GEPOL Volume                                      ...    1270.8885
GEPOL Surface-area                                ...     704.8321
Calculating surface distance matrix               ...        done! (  0.0s)
Performing Cholesky decomposition & store         ...        done! (  0.1s)
Overall time for CPCM initialization              ...                 0.1s
--------------
SCF ITERATIONS
--------------
ITER       Energy         Delta-E        Max-DP      RMS-DP      [F,P]     Damp
               ***  Starting incremental Fock matrix formation  ***
  0   -515.4152811043   0.000000000000 0.79714112  0.00691451  0.3159273 0.7000
  1   -515.6029512485  -0.187670144136 0.70444779  0.00633605  0.0998352 0.7000
                               ***Turning on DIIS***
  2   -515.6639344608  -0.060983212364 0.60168718  0.00629971  0.0287275 0.0000
  3   -515.7637405270  -0.099806066175 0.64403420  0.00558661  0.0609834 0.0000
  4   -515.7888681819  -0.025127654886 0.14252014  0.00132838  0.0277617 0.0000
  5   -515.7914379472  -0.002569765306 0.08621918  0.00080574  0.0098685 0.0000
                      *** Initiating the SOSCF procedure ***
                           *** Shutting down DIIS ***
                      *** Re-Reading the Fockian *** 
                      *** Removing any level shift *** 
ITER      Energy       Delta-E        Grad      Rot      Max-DP    RMS-DP
  6   -515.79163664  -0.0001986954  0.000246  0.000246  0.024716  0.000246
               *** Restarting incremental Fock matrix formation ***
  7   -515.79165044  -0.0000137977  0.000187  0.001312  0.018465  0.000179
  8   -515.79164617   0.0000042716  0.000407  0.001104  0.005213  0.000042
  9   -515.79165347  -0.0000073019  0.000103  0.000531  0.002117  0.000017
 10   -515.79165211   0.0000013573  0.000186  0.000330  0.002256  0.000021
 11   -515.79165385  -0.0000017359  0.000013  0.000106  0.000922  0.000010
 12   -515.79165383   0.0000000149  0.000027  0.000065  0.000122  0.000001
                  ***Gradient check signals convergence***
              ***Rediagonalizing the Fockian in SOSCF/NRSCF***

               *****************************************************
               *                     SUCCESS                       *
               *           SCF CONVERGED AFTER  13 CYCLES          *
               *****************************************************


----------------
TOTAL SCF ENERGY
----------------

Total Energy       :         -515.79165386 Eh          -14035.40445 eV

Components:
Nuclear Repulsion  :          587.72096057 Eh           15992.70039 eV
Electronic Energy  :        -1103.51261443 Eh          -30028.10484 eV
One Electron Energy:        -1880.92292943 Eh          -51182.51498 eV
Two Electron Energy:          777.41031500 Eh           21154.41014 eV
CPCM Dielectric    :           -0.09486142 Eh              -2.58131 eV

Virial components:
Potential Energy   :        -1029.23310822 Eh          -28006.85672 eV
Kinetic Energy     :          513.44145436 Eh           13971.45227 eV
Virial Ratio       :            2.00457735


DFT components:
N(Alpha)           :       41.000055613139 electrons
N(Beta)            :       41.000055613139 electrons
N(Total)           :       82.000111226277 electrons
E(X)               :      -68.161098191309 Eh       
E(C)               :       -2.741506757215 Eh       
E(XC)              :      -70.902604948524 Eh       
DFET-embed. en.    :        0.000000000000 Eh       
CPCM Solvation Model Properties:
Surface-charge          :            0.96422926
Charge-correction       :           -0.00462878 Eh              -0.12596 eV
Free-energy (cav+disp)  :  This term is not implemented in the current solvation scheme

---------------
SCF CONVERGENCE
---------------

  Last Energy change         ...   -2.6824e-08  Tolerance :   1.0000e-08
  Last MAX-Density change    ...    3.6912e-04  Tolerance :   1.0000e-07
  Last RMS-Density change    ...    4.2131e-06  Tolerance :   5.0000e-09
  Last Orbital Gradient      ...    2.3537e-06  Tolerance :   1.0000e-05
  Last Orbital Rotation      ...    1.0357e-05  Tolerance :   1.0000e-05

             **** THE GBW FILE WAS UPDATED (deprotonated.gbw) ****
             **** DENSITY deprotonated.scfp WAS UPDATED ****
             **** ENERGY FILE WAS UPDATED (deprotonated.en.tmp) ****
             **** THE GBW FILE WAS UPDATED (deprotonated.gbw) ****
             **** DENSITY deprotonated.scfp WAS UPDATED ****
----------------
ORBITAL ENERGIES
----------------

  NO   OCC          E(Eh)            E(eV) 
   0   2.0000     -18.747519      -510.1459 
   1   2.0000     -18.674941      -508.1710 
   2   2.0000     -13.956927      -379.7873 
   3   2.0000      -9.904466      -269.5142 
   4   2.0000      -9.898314      -269.3468 
   5   2.0000      -9.893088      -269.2046 
   6   2.0000      -9.867704      -268.5139 
   7   2.0000      -9.862285      -268.3664 
   8   2.0000      -9.858422      -268.2613 
   9   2.0000      -9.857206      -268.2282 
  10   2.0000      -9.850290      -268.0400 
  11   2.0000      -0.943488       -25.6736 
  12   2.0000      -0.858081       -23.3496 
  13   2.0000      -0.795234       -21.6394 
  14   2.0000      -0.739887       -20.1333 
  15   2.0000      -0.667300       -18.1582 
  16   2.0000      -0.640094       -17.4178 
  17   2.0000      -0.601760       -16.3747 
  18   2.0000      -0.536843       -14.6082 
  19   2.0000      -0.514981       -14.0134 
  20   2.0000      -0.501210       -13.6386 
  21   2.0000      -0.442927       -12.0527 
  22   2.0000      -0.430452       -11.7132 
  23   2.0000      -0.409412       -11.1407 
  24   2.0000      -0.393834       -10.7168 
  25   2.0000      -0.376461       -10.2440 
  26   2.0000      -0.364670        -9.9232 
  27   2.0000      -0.354858        -9.6562 
  28   2.0000      -0.344825        -9.3832 
  29   2.0000      -0.340810        -9.2739 
  30   2.0000      -0.331446        -9.0191 
  31   2.0000      -0.305756        -8.3200 
  32   2.0000      -0.297048        -8.0831 
  33   2.0000      -0.281672        -7.6647 
  34   2.0000      -0.277146        -7.5415 
  35   2.0000      -0.267324        -7.2743 
  36   2.0000      -0.251429        -6.8417 
  37   2.0000      -0.202183        -5.5017 
  38   2.0000      -0.185034        -5.0350 
  39   2.0000      -0.183990        -5.0066 
  40   2.0000      -0.137402        -3.7389 
  41   0.0000      -0.009192        -0.2501 
  42   0.0000       0.005353         0.1457 
  43   0.0000       0.027553         0.7498 
  44   0.0000       0.050870         1.3842 
  45   0.0000       0.052377         1.4253 
  46   0.0000       0.064369         1.7516 
  47   0.0000       0.067372         1.8333 
  48   0.0000       0.084183         2.2907 
  49   0.0000       0.090878         2.4729 
  50   0.0000       0.106569         2.8999 
  51   0.0000       0.120764         3.2861 
  52   0.0000       0.123605         3.3635 
  53   0.0000       0.133236         3.6255 
  54   0.0000       0.142259         3.8711 
  55   0.0000       0.143946         3.9170 
  56   0.0000       0.154883         4.2146 
  57   0.0000       0.171553         4.6682 
  58   0.0000       0.184237         5.0134 
  59   0.0000       0.191465         5.2100 
  60   0.0000       0.205373         5.5885 
  61   0.0000       0.216430         5.8894 
  62   0.0000       0.222188         6.0460 
  63   0.0000       0.233287         6.3481 
  64   0.0000       0.236791         6.4434 
  65   0.0000       0.247020         6.7218 
  66   0.0000       0.253181         6.8894 
  67   0.0000       0.267442         7.2775 
  68   0.0000       0.275745         7.5034 
  69   0.0000       0.280758         7.6398 
  70   0.0000       0.284635         7.7453 
  71   0.0000       0.293504         7.9867 
  72   0.0000       0.308692         8.3999 
  73   0.0000       0.319180         8.6853 
  74   0.0000       0.320072         8.7096 
  75   0.0000       0.325576         8.8594 
  76   0.0000       0.331908         9.0317 
  77   0.0000       0.337661         9.1882 
  78   0.0000       0.341646         9.2967 
  79   0.0000       0.348185         9.4746 
  80   0.0000       0.358344         9.7510 
  81   0.0000       0.367457         9.9990 
  82   0.0000       0.388377        10.5683 
  83   0.0000       0.399325        10.8662 
  84   0.0000       0.406390        11.0584 
  85   0.0000       0.410645        11.1742 
  86   0.0000       0.415135        11.2964 
  87   0.0000       0.416535        11.3345 
  88   0.0000       0.423245        11.5171 
  89   0.0000       0.427876        11.6431 
  90   0.0000       0.433866        11.8061 
  91   0.0000       0.445380        12.1194 
  92   0.0000       0.458701        12.4819 
  93   0.0000       0.460592        12.5334 
  94   0.0000       0.465611        12.6699 
  95   0.0000       0.480358        13.0712 
  96   0.0000       0.487727        13.2717 
  97   0.0000       0.504771        13.7355 
  98   0.0000       0.513754        13.9800 
  99   0.0000       0.516368        14.0511 
 100   0.0000       0.524636        14.2761 
 101   0.0000       0.543352        14.7853 
 102   0.0000       0.569440        15.4952 
 103   0.0000       0.575511        15.6605 
 104   0.0000       0.579238        15.7619 
 105   0.0000       0.583789        15.8857 
 106   0.0000       0.600764        16.3476 
 107   0.0000       0.607653        16.5351 
 108   0.0000       0.622876        16.9493 
 109   0.0000       0.629151        17.1201 
 110   0.0000       0.646941        17.6042 
 111   0.0000       0.668075        18.1792 
 112   0.0000       0.671971        18.2852 
 113   0.0000       0.692304        18.8385 
 114   0.0000       0.700459        19.0605 
 115   0.0000       0.715936        19.4816 
 116   0.0000       0.736131        20.0311 
 117   0.0000       0.742226        20.1970 
 118   0.0000       0.757485        20.6122 
 119   0.0000       0.766779        20.8651 
 120   0.0000       0.792860        21.5748 
 121   0.0000       0.797778        21.7086 
 122   0.0000       0.819608        22.3027 
 123   0.0000       0.822113        22.3708 
 124   0.0000       0.831880        22.6366 
 125   0.0000       0.840684        22.8762 
 126   0.0000       0.857386        23.3307 
 127   0.0000       0.863069        23.4853 
 128   0.0000       0.874547        23.7976 
 129   0.0000       0.898652        24.4536 
 130   0.0000       0.927241        25.2315 
 131   0.0000       0.945245        25.7214 
 132   0.0000       0.974032        26.5048 
 133   0.0000       0.985178        26.8081 
 134   0.0000       1.002553        27.2809 
 135   0.0000       1.029103        28.0033 
 136   0.0000       1.045984        28.4627 
 137   0.0000       1.055179        28.7129 
 138   0.0000       1.067163        29.0390 
 139   0.0000       1.082085        29.4450 
 140   0.0000       1.094491        29.7826 
 141   0.0000       1.098849        29.9012 
 142   0.0000       1.123007        30.5586 
 143   0.0000       1.144485        31.1430 
 144   0.0000       1.159196        31.5433 
 145   0.0000       1.180618        32.1262 
 146   0.0000       1.203694        32.7542 
 147   0.0000       1.211455        32.9654 
 148   0.0000       1.229661        33.4608 
 149   0.0000       1.231032        33.4981 
 150   0.0000       1.243976        33.8503 
 151   0.0000       1.268134        34.5077 
 152   0.0000       1.282218        34.8909 
 153   0.0000       1.288366        35.0582 
 154   0.0000       1.310827        35.6694 
 155   0.0000       1.318369        35.8747 
 156   0.0000       1.342961        36.5438 
 157   0.0000       1.353240        36.8235 
 158   0.0000       1.369510        37.2663 
 159   0.0000       1.378714        37.5167 
 160   0.0000       1.387807        37.7641 
 161   0.0000       1.416480        38.5444 
 162   0.0000       1.433764        39.0147 
 163   0.0000       1.455085        39.5949 
 164   0.0000       1.464171        39.8421 
 165   0.0000       1.497374        40.7456 
 166   0.0000       1.502606        40.8880 
 167   0.0000       1.513464        41.1835 
 168   0.0000       1.519222        41.3401 
 169   0.0000       1.540255        41.9125 
 170   0.0000       1.547274        42.1035 
 171   0.0000       1.566396        42.6238 
 172   0.0000       1.581778        43.0424 
 173   0.0000       1.602643        43.6101 
 174   0.0000       1.614527        43.9335 
 175   0.0000       1.642450        44.6933 
 176   0.0000       1.650054        44.9002 
 177   0.0000       1.664888        45.3039 
 178   0.0000       1.681672        45.7606 
 179   0.0000       1.689250        45.9668 
 180   0.0000       1.694749        46.1165 
 181   0.0000       1.719168        46.7809 
 182   0.0000       1.735969        47.2381 
 183   0.0000       1.760186        47.8971 
 184   0.0000       1.765667        48.0462 
 185   0.0000       1.775808        48.3222 
 186   0.0000       1.799520        48.9674 
 187   0.0000       1.802158        49.0392 
 188   0.0000       1.817279        49.4507 
 189   0.0000       1.835552        49.9479 
 190   0.0000       1.852927        50.4207 
 191   0.0000       1.884380        51.2766 
 192   0.0000       1.885617        51.3102 
 193   0.0000       1.906887        51.8890 
 194   0.0000       1.924635        52.3720 
 195   0.0000       1.939001        52.7629 
 196   0.0000       1.953814        53.1660 
 197   0.0000       1.958346        53.2893 
 198   0.0000       1.979118        53.8546 
 199   0.0000       1.982961        53.9591 
 200   0.0000       2.004675        54.5500 
 201   0.0000       2.014169        54.8083 
 202   0.0000       2.030870        55.2628 
 203   0.0000       2.050092        55.7858 
 204   0.0000       2.060850        56.0786 
 205   0.0000       2.096475        57.0480 
 206   0.0000       2.102629        57.2155 
 207   0.0000       2.110476        57.4290 
 208   0.0000       2.135064        58.0980 
 209   0.0000       2.157555        58.7101 
 210   0.0000       2.174968        59.1839 
 211   0.0000       2.187263        59.5185 
 212   0.0000       2.201874        59.9160 
 213   0.0000       2.225758        60.5659 
 214   0.0000       2.258350        61.4528 
 215   0.0000       2.271601        61.8134 
 216   0.0000       2.292859        62.3919 
 217   0.0000       2.328242        63.3547 
 218   0.0000       2.332140        63.4608 
 219   0.0000       2.371717        64.5377 
 220   0.0000       2.376888        64.6784 
 221   0.0000       2.384028        64.8727 
 222   0.0000       2.399488        65.2934 
 223   0.0000       2.415746        65.7358 
 224   0.0000       2.423030        65.9340 
 225   0.0000       2.453693        66.7684 
 226   0.0000       2.465802        67.0979 
 227   0.0000       2.485933        67.6457 
 228   0.0000       2.486518        67.6616 
 229   0.0000       2.506071        68.1936 
 230   0.0000       2.522531        68.6416 
 231   0.0000       2.548272        69.3420 
 232   0.0000       2.563849        69.7659 
 233   0.0000       2.570937        69.9588 
 234   0.0000       2.575430        70.0810 
 235   0.0000       2.594091        70.5888 
 236   0.0000       2.602650        70.8217 
 237   0.0000       2.611578        71.0647 
 238   0.0000       2.629497        71.5523 
 239   0.0000       2.649620        72.0998 
 240   0.0000       2.660381        72.3926 
 241   0.0000       2.677079        72.8470 
 242   0.0000       2.697869        73.4127 
 243   0.0000       2.722084        74.0717 
 244   0.0000       2.733543        74.3835 
 245   0.0000       2.741401        74.5973 
 246   0.0000       2.749255        74.8110 
 247   0.0000       2.758359        75.0588 
 248   0.0000       2.763501        75.1987 
 249   0.0000       2.775828        75.5341 
 250   0.0000       2.811361        76.5010 
 251   0.0000       2.812933        76.5438 
 252   0.0000       2.828189        76.9589 
 253   0.0000       2.846483        77.4567 
 254   0.0000       2.853761        77.6548 
 255   0.0000       2.881346        78.4054 
 256   0.0000       2.903692        79.0135 
 257   0.0000       2.913521        79.2809 
 258   0.0000       2.922784        79.5330 
 259   0.0000       2.950133        80.2772 
 260   0.0000       2.955330        80.4186 
 261   0.0000       2.959963        80.5447 
 262   0.0000       2.981877        81.1410 
 263   0.0000       3.019962        82.1774 
 264   0.0000       3.024204        82.2928 
 265   0.0000       3.028458        82.4085 
 266   0.0000       3.038297        82.6763 
 267   0.0000       3.050694        83.0136 
 268   0.0000       3.078269        83.7640 
 269   0.0000       3.093381        84.1752 
 270   0.0000       3.101697        84.4015 
 271   0.0000       3.109093        84.6027 
 272   0.0000       3.113068        84.7109 
 273   0.0000       3.132832        85.2487 
 274   0.0000       3.150961        85.7420 
 275   0.0000       3.160311        85.9964 
 276   0.0000       3.179351        86.5145 
 277   0.0000       3.191361        86.8414 
 278   0.0000       3.206100        87.2424 
 279   0.0000       3.217134        87.5427 
 280   0.0000       3.235535        88.0434 
 281   0.0000       3.241057        88.1937 
 282   0.0000       3.252511        88.5053 
 283   0.0000       3.273882        89.0869 
 284   0.0000       3.288839        89.4939 
 285   0.0000       3.298121        89.7464 
 286   0.0000       3.306147        89.9648 
 287   0.0000       3.311774        90.1179 
 288   0.0000       3.330393        90.6246 
 289   0.0000       3.346703        91.0684 
 290   0.0000       3.365786        91.5877 
 291   0.0000       3.381303        92.0099 
 292   0.0000       3.395009        92.3829 
 293   0.0000       3.398297        92.4724 
 294   0.0000       3.423282        93.1522 
 295   0.0000       3.423409        93.1557 
 296   0.0000       3.440931        93.6325 
 297   0.0000       3.454994        94.0152 
 298   0.0000       3.462327        94.2147 
 299   0.0000       3.484125        94.8079 
 300   0.0000       3.505564        95.3913 
 301   0.0000       3.543667        96.4281 
 302   0.0000       3.597980        97.9060 
 303   0.0000       3.600165        97.9655 
 304   0.0000       3.613826        98.3372 
 305   0.0000       3.636972        98.9670 
 306   0.0000       3.656229        99.4910 
 307   0.0000       3.686964       100.3274 
 308   0.0000       3.715679       101.1088 
 309   0.0000       3.756594       102.2221 
 310   0.0000       3.775454       102.7353 
 311   0.0000       3.785366       103.0050 
 312   0.0000       3.812041       103.7309 
 313   0.0000       3.831752       104.2673 
 314   0.0000       3.865787       105.1934 
 315   0.0000       3.870186       105.3131 
 316   0.0000       3.900603       106.1408 
 317   0.0000       3.903891       106.2303 
 318   0.0000       3.933872       107.0461 
 319   0.0000       3.999403       108.8293 
 320   0.0000       4.008089       109.0657 
 321   0.0000       4.021022       109.4176 
 322   0.0000       4.047262       110.1316 
 323   0.0000       4.054688       110.3337 
 324   0.0000       4.082351       111.0864 
 325   0.0000       4.105586       111.7187 
 326   0.0000       4.114977       111.9742 
 327   0.0000       4.135598       112.5353 
 328   0.0000       4.143112       112.7398 
 329   0.0000       4.173677       113.5715 
 330   0.0000       4.199857       114.2839 
 331   0.0000       4.224476       114.9538 
 332   0.0000       4.252207       115.7084 
 333   0.0000       4.263944       116.0278 
 334   0.0000       4.302444       117.0755 
 335   0.0000       4.338096       118.0456 
 336   0.0000       4.354063       118.4801 
 337   0.0000       4.374668       119.0408 
 338   0.0000       4.421097       120.3042 
 339   0.0000       4.459900       121.3601 
 340   0.0000       4.498199       122.4022 
 341   0.0000       4.536147       123.4348 
 342   0.0000       4.570141       124.3598 
 343   0.0000       4.600206       125.1780 
 344   0.0000       4.639371       126.2437 
 345   0.0000       4.689355       127.6038 
 346   0.0000       4.720498       128.4513 
 347   0.0000       4.757675       129.4629 
 348   0.0000       4.776427       129.9732 
 349   0.0000       4.804302       130.7317 
 350   0.0000       4.813595       130.9846 
 351   0.0000       4.842568       131.7730 
 352   0.0000       4.848457       131.9332 
 353   0.0000       4.913460       133.7020 
 354   0.0000       4.954890       134.8294 
 355   0.0000       4.964068       135.0791 
 356   0.0000       4.992195       135.8445 
 357   0.0000       5.026923       136.7895 
 358   0.0000       5.117049       139.2420 
 359   0.0000       5.125497       139.4719 
 360   0.0000       5.179644       140.9453 
 361   0.0000       5.193251       141.3156 
 362   0.0000       5.200584       141.5151 
 363   0.0000       5.210202       141.7768 
 364   0.0000       5.276047       143.5685 
 365   0.0000       5.280351       143.6857 
 366   0.0000       5.380589       146.4133 
 367   0.0000       5.420577       147.5014 
 368   0.0000       5.452429       148.3681 
 369   0.0000       5.456153       148.4695 
 370   0.0000       5.530217       150.4848 
 371   0.0000       5.638473       153.4306 
 372   0.0000       5.651343       153.7809 
 373   0.0000       5.666225       154.1858 
 374   0.0000       5.795271       157.6973 
 375   0.0000       5.909366       160.8020 
 376   0.0000       5.963996       162.2886 
 377   0.0000       6.133113       166.8905 
 378   0.0000       6.239506       169.7856 
 379   0.0000       6.284399       171.0072 
 380   0.0000       6.317039       171.8954 
 381   0.0000       6.522096       177.4753 
 382   0.0000       6.539629       177.9524 
 383   0.0000       6.585631       179.2041 
 384   0.0000       6.709853       182.5844 
 385   0.0000       6.727221       183.0570 
 386   0.0000       6.878034       187.1608 
 387   0.0000       6.933702       188.6756 
 388   0.0000       6.984998       190.0715 
 389   0.0000       7.163973       194.9416 
 390   0.0000      21.970918       597.8591 
 391   0.0000      22.146097       602.6259 
 392   0.0000      22.274844       606.1293 
 393   0.0000      22.426375       610.2527 
 394   0.0000      22.472127       611.4977 
 395   0.0000      22.652541       616.4070 
 396   0.0000      22.717755       618.1815 
 397   0.0000      23.174467       630.6093 
 398   0.0000      31.630240       860.7026 
 399   0.0000      43.492065      1183.4793 
 400   0.0000      43.694673      1188.9925 

                    ********************************
                    * MULLIKEN POPULATION ANALYSIS *
                    ********************************

-----------------------
MULLIKEN ATOMIC CHARGES
-----------------------
   0 O :   -0.432796
   1 O :   -0.633981
   2 N :   -0.550594
   3 C :   -0.204618
   4 C :    0.181355
   5 C :   -0.115915
   6 C :   -0.381680
   7 C :   -0.321241
   8 C :    0.131069
   9 C :   -0.280682
  10 C :    0.184705
  11 H :    0.106968
  12 H :    0.089122
  13 H :    0.106982
  14 H :    0.102889
  15 H :    0.092243
  16 H :    0.095714
  17 H :    0.073307
  18 H :    0.229714
  19 H :    0.229632
  20 H :    0.297807
Sum of atomic charges:   -1.0000000

--------------------------------
MULLIKEN REDUCED ORBITAL CHARGES
--------------------------------
  0 O s       :     3.753330  s :     3.753330
      pz      :     1.771083  p :     4.646746
      px      :     1.331916
      py      :     1.543747
      dz2     :     0.003790  d :     0.031282
      dxz     :     0.003213
      dyz     :     0.005395
      dx2y2   :     0.006026
      dxy     :     0.012857
      f0      :     0.000262  f :     0.001439
      f+1     :     0.000227
      f-1     :     0.000185
      f+2     :     0.000034
      f-2     :     0.000239
      f+3     :     0.000149
      f-3     :     0.000343
  1 O s       :     3.797447  s :     3.797447
      pz      :     1.643209  p :     4.809307
      px      :     1.380653
      py      :     1.785445
      dz2     :     0.003259  d :     0.025864
      dxz     :     0.007617
      dyz     :     0.000652
      dx2y2   :     0.008629
      dxy     :     0.005707
      f0      :     0.000131  f :     0.001363
      f+1     :     0.000258
      f-1     :     0.000017
      f+2     :     0.000275
      f-2     :     0.000064
      f+3     :     0.000320
      f-3     :     0.000299
  2 N s       :     3.529870  s :     3.529870
      pz      :     1.488108  p :     3.978180
      px      :     1.308973
      py      :     1.181100
      dz2     :     0.010383  d :     0.040508
      dxz     :     0.005697
      dyz     :     0.008534
      dx2y2   :     0.008703
      dxy     :     0.007192
      f0      :     0.000374  f :     0.002036
      f+1     :     0.000235
      f-1     :     0.000333
      f+2     :     0.000363
      f-2     :     0.000427
      f+3     :     0.000264
      f-3     :     0.000040
  3 C s       :     3.183642  s :     3.183642
      pz      :     0.984353  p :     2.926126
      px      :     0.910835
      py      :     1.030938
      dz2     :     0.013244  d :     0.089572
      dxz     :     0.022413
      dyz     :     0.017936
      dx2y2   :     0.018045
      dxy     :     0.017934
      f0      :     0.000711  f :     0.005278
      f+1     :     0.000873
      f-1     :     0.000516
      f+2     :     0.001317
      f-2     :     0.000531
      f+3     :     0.000632
      f-3     :     0.000697
  4 C s       :     3.126077  s :     3.126077
      pz      :     0.977251  p :     2.552067
      px      :     0.783819
      py      :     0.790997
      dz2     :     0.009128  d :     0.131189
      dxz     :     0.020801
      dyz     :     0.026746
      dx2y2   :     0.037879
      dxy     :     0.036635
      f0      :     0.001210  f :     0.009312
      f+1     :     0.000898
      f-1     :     0.000696
      f+2     :     0.000899
      f-2     :     0.001364
      f+3     :     0.001468
      f-3     :     0.002777
  5 C s       :     3.171310  s :     3.171310
      pz      :     0.877511  p :     2.828860
      px      :     1.024836
      py      :     0.926513
      dz2     :     0.034549  d :     0.108397
      dxz     :     0.019712
      dyz     :     0.023298
      dx2y2   :     0.017521
      dxy     :     0.013316
      f0      :     0.001376  f :     0.007349
      f+1     :     0.000566
      f-1     :     0.001527
      f+2     :     0.001553
      f-2     :     0.001471
      f+3     :     0.000611
      f-3     :     0.000245
  6 C s       :     3.343461  s :     3.343461
      pz      :     1.073701  p :     2.952089
      px      :     0.968892
      py      :     0.909496
      dz2     :     0.006606  d :     0.079256
      dxz     :     0.019629
      dyz     :     0.008356
      dx2y2   :     0.022660
      dxy     :     0.022006
      f0      :     0.001037  f :     0.006873
      f+1     :     0.001048
      f-1     :     0.000546
      f+2     :     0.000574
      f-2     :     0.000935
      f+3     :     0.000978
      f-3     :     0.001755
  7 C s       :     3.290803  s :     3.290803
      pz      :     1.043734  p :     2.931369
      px      :     0.951711
      py      :     0.935924
      dz2     :     0.008826  d :     0.092343
      dxz     :     0.017392
      dyz     :     0.012851
      dx2y2   :     0.017245
      dxy     :     0.036029
      f0      :     0.000895  f :     0.006726
      f+1     :     0.001008
      f-1     :     0.000643
      f+2     :     0.000995
      f-2     :     0.000481
      f+3     :     0.001025
      f-3     :     0.001680
  8 C s       :     3.057627  s :     3.057627
      pz      :     0.993084  p :     2.650218
      px      :     0.820727
      py      :     0.836407
      dz2     :     0.010809  d :     0.146270
      dxz     :     0.032945
      dyz     :     0.026402
      dx2y2   :     0.042077
      dxy     :     0.034036
      f0      :     0.001651  f :     0.014815
      f+1     :     0.001468
      f-1     :     0.001067
      f+2     :     0.000947
      f-2     :     0.002559
      f+3     :     0.003060
      f-3     :     0.004064
  9 C s       :     3.287005  s :     3.287005
      pz      :     1.094778  p :     2.912110
      px      :     0.913111
      py      :     0.904221
      dz2     :     0.006676  d :     0.074982
      dxz     :     0.017128
      dyz     :     0.008316
      dx2y2   :     0.020116
      dxy     :     0.022746
      f0      :     0.001011  f :     0.006585
      f+1     :     0.001006
      f-1     :     0.000512
      f+2     :     0.000567
      f-2     :     0.000870
      f+3     :     0.001071
      f-3     :     0.001549
 10 C s       :     3.015741  s :     3.015741
      pz      :     0.933682  p :     2.614985
      px      :     0.834662
      py      :     0.846641
      dz2     :     0.016895  d :     0.169390
      dxz     :     0.042678
      dyz     :     0.019544
      dx2y2   :     0.031297
      dxy     :     0.058976
      f0      :     0.001552  f :     0.015179
      f+1     :     0.001874
      f-1     :     0.000658
      f+2     :     0.002091
      f-2     :     0.001543
      f+3     :     0.002467
      f-3     :     0.004994
 11 H s       :     0.872146  s :     0.872146
      pz      :     0.005783  p :     0.020886
      px      :     0.005605
      py      :     0.009498
 12 H s       :     0.889871  s :     0.889871
      pz      :     0.008702  p :     0.021007
      px      :     0.004557
      py      :     0.007748
 13 H s       :     0.872538  s :     0.872538
      pz      :     0.004716  p :     0.020480
      px      :     0.011249
      py      :     0.004516
 14 H s       :     0.876608  s :     0.876608
      pz      :     0.004938  p :     0.020503
      px      :     0.005296
      py      :     0.010269
 15 H s       :     0.886096  s :     0.886096
      pz      :     0.005617  p :     0.021662
      px      :     0.004765
      py      :     0.011280
 16 H s       :     0.882575  s :     0.882575
      pz      :     0.005415  p :     0.021711
      px      :     0.007194
      py      :     0.009103
 17 H s       :     0.904790  s :     0.904790
      pz      :     0.005959  p :     0.021903
      px      :     0.004739
      py      :     0.011205
 18 H s       :     0.734769  s :     0.734769
      pz      :     0.010638  p :     0.035517
      px      :     0.017067
      py      :     0.007813
 19 H s       :     0.735373  s :     0.735373
      pz      :     0.009767  p :     0.034996
      px      :     0.010305
      py      :     0.014924
 20 H s       :     0.651749  s :     0.651749
      pz      :     0.014220  p :     0.050444
      px      :     0.016557
      py      :     0.019667


                     *******************************
                     * LOEWDIN POPULATION ANALYSIS *
                     *******************************

----------------------
LOEWDIN ATOMIC CHARGES
----------------------
   0 O :    0.015026
   1 O :   -0.190467
   2 N :   -0.197953
   3 C :   -0.253835
   4 C :   -0.207946
   5 C :   -0.351118
   6 C :   -0.157535
   7 C :   -0.193795
   8 C :   -0.305267
   9 C :   -0.204572
  10 C :   -0.414748
  11 H :    0.142340
  12 H :    0.144048
  13 H :    0.128585
  14 H :    0.129150
  15 H :    0.145531
  16 H :    0.141105
  17 H :    0.133621
  18 H :    0.154766
  19 H :    0.156312
  20 H :    0.186750

-------------------------------
LOEWDIN REDUCED ORBITAL CHARGES
-------------------------------
  0 O s       :     3.362233  s :     3.362233
      pz      :     1.673105  p :     4.546951
      px      :     1.326793
      py      :     1.547054
      dz2     :     0.007001  d :     0.070883
      dxz     :     0.009591
      dyz     :     0.009353
      dx2y2   :     0.017879
      dxy     :     0.027059
      f0      :     0.000529  f :     0.004906
      f+1     :     0.000430
      f-1     :     0.000345
      f+2     :     0.000048
      f-2     :     0.000881
      f+3     :     0.001080
      f-3     :     0.001592
  1 O s       :     3.448211  s :     3.448211
      pz      :     1.564318  p :     4.676754
      px      :     1.458341
      py      :     1.654095
      dz2     :     0.007220  d :     0.060899
      dxz     :     0.016514
      dyz     :     0.001370
      dx2y2   :     0.019178
      dxy     :     0.016616
      f0      :     0.000405  f :     0.004604
      f+1     :     0.000781
      f-1     :     0.000047
      f+2     :     0.000858
      f-2     :     0.000243
      f+3     :     0.001041
      f-3     :     0.001228
  2 N s       :     3.110846  s :     3.110846
      pz      :     1.447154  p :     3.940811
      px      :     1.280029
      py      :     1.213628
      dz2     :     0.030800  d :     0.136315
      dxz     :     0.018716
      dyz     :     0.029799
      dx2y2   :     0.029983
      dxy     :     0.027017
      f0      :     0.002000  f :     0.009981
      f+1     :     0.001070
      f-1     :     0.001533
      f+2     :     0.001444
      f-2     :     0.001577
      f+3     :     0.001508
      f-3     :     0.000850
  3 C s       :     2.783208  s :     2.783208
      pz      :     1.017344  p :     3.045443
      px      :     1.006017
      py      :     1.022082
      dz2     :     0.055204  d :     0.388010
      dxz     :     0.096995
      dyz     :     0.088058
      dx2y2   :     0.077602
      dxy     :     0.070151
      f0      :     0.005827  f :     0.037174
      f+1     :     0.006722
      f-1     :     0.003284
      f+2     :     0.006541
      f-2     :     0.004044
      f+3     :     0.005366
      f-3     :     0.005391
  4 C s       :     2.715382  s :     2.715382
      pz      :     0.905280  p :     2.913230
      px      :     0.965512
      py      :     1.042438
      dz2     :     0.039783  d :     0.523307
      dxz     :     0.071099
      dyz     :     0.093795
      dx2y2   :     0.164064
      dxy     :     0.154565
      f0      :     0.003935  f :     0.056027
      f+1     :     0.004269
      f-1     :     0.005008
      f+2     :     0.005586
      f-2     :     0.008920
      f+3     :     0.010436
      f-3     :     0.017873
  5 C s       :     2.807085  s :     2.807085
      pz      :     0.990662  p :     3.015192
      px      :     1.038474
      py      :     0.986055
      dz2     :     0.130989  d :     0.478097
      dxz     :     0.093562
      dyz     :     0.111782
      dx2y2   :     0.087683
      dxy     :     0.054081
      f0      :     0.010795  f :     0.050745
      f+1     :     0.004907
      f-1     :     0.009882
      f+2     :     0.007779
      f-2     :     0.008981
      f+3     :     0.005205
      f-3     :     0.003196
  6 C s       :     2.763900  s :     2.763900
      pz      :     0.970011  p :     2.980464
      px      :     1.022567
      py      :     0.987887
      dz2     :     0.031866  d :     0.371977
      dxz     :     0.073811
      dyz     :     0.030891
      dx2y2   :     0.129080
      dxy     :     0.106329
      f0      :     0.003260  f :     0.041193
      f+1     :     0.004588
      f-1     :     0.002959
      f+2     :     0.004741
      f-2     :     0.006066
      f+3     :     0.008048
      f-3     :     0.011532
  7 C s       :     2.769073  s :     2.769073
      pz      :     0.956301  p :     2.984169
      px      :     1.022263
      py      :     1.005605
      dz2     :     0.039193  d :     0.399471
      dxz     :     0.064074
      dyz     :     0.046740
      dx2y2   :     0.099276
      dxy     :     0.150188
      f0      :     0.002891  f :     0.041082
      f+1     :     0.004158
      f-1     :     0.003547
      f+2     :     0.007441
      f-2     :     0.003269
      f+3     :     0.008354
      f-3     :     0.011422
  8 C s       :     2.733348  s :     2.733348
      pz      :     0.918963  p :     2.818074
      px      :     0.972012
      py      :     0.927100
      dz2     :     0.060754  d :     0.662618
      dxz     :     0.112947
      dyz     :     0.099238
      dx2y2   :     0.184870
      dxy     :     0.204809
      f0      :     0.006749  f :     0.091226
      f+1     :     0.006940
      f-1     :     0.007540
      f+2     :     0.006556
      f-2     :     0.017438
      f+3     :     0.020736
      f-3     :     0.025267
  9 C s       :     2.779062  s :     2.779062
      pz      :     0.990485  p :     3.021499
      px      :     1.044325
      py      :     0.986688
      dz2     :     0.032160  d :     0.364639
      dxz     :     0.068358
      dyz     :     0.028159
      dx2y2   :     0.119094
      dxy     :     0.116868
      f0      :     0.003109  f :     0.039372
      f+1     :     0.004637
      f-1     :     0.002939
      f+2     :     0.004226
      f-2     :     0.005423
      f+3     :     0.008158
      f-3     :     0.010880
 10 C s       :     2.732102  s :     2.732102
      pz      :     0.869041  p :     2.828826
      px      :     0.927437
      py      :     1.032349
      dz2     :     0.069071  d :     0.754980
      dxz     :     0.159647
      dyz     :     0.076093
      dx2y2   :     0.205235
      dxy     :     0.244934
      f0      :     0.006181  f :     0.098840
      f+1     :     0.011324
      f-1     :     0.004523
      f+2     :     0.016852
      f-2     :     0.009610
      f+3     :     0.017111
      f-3     :     0.033239
 11 H s       :     0.799916  s :     0.799916
      pz      :     0.015292  p :     0.057744
      px      :     0.014851
      py      :     0.027602
 12 H s       :     0.797896  s :     0.797896
      pz      :     0.022742  p :     0.058055
      px      :     0.012299
      py      :     0.023015
 13 H s       :     0.813519  s :     0.813519
      pz      :     0.013319  p :     0.057897
      px      :     0.031788
      py      :     0.012790
 14 H s       :     0.813086  s :     0.813086
      pz      :     0.014115  p :     0.057764
      px      :     0.015881
      py      :     0.027768
 15 H s       :     0.795014  s :     0.795014
      pz      :     0.015642  p :     0.059455
      px      :     0.013539
      py      :     0.030273
 16 H s       :     0.799921  s :     0.799921
      pz      :     0.014976  p :     0.058974
      px      :     0.019587
      py      :     0.024411
 17 H s       :     0.806695  s :     0.806695
      pz      :     0.016259  p :     0.059684
      px      :     0.013513
      py      :     0.029912
 18 H s       :     0.736185  s :     0.736185
      pz      :     0.030088  p :     0.109049
      px      :     0.056681
      py      :     0.022280
[...]
     15       0.019777   0.038124  -0.069581  -0.000073   0.000017   0.000119
     16       0.061726  -0.000126   0.033566  -0.000408   0.000214  -0.000383
     17       0.009573  -0.015259   0.034791  -0.000142   0.000067  -0.000127
     18      -0.000176  -0.000228   0.000058  -0.000653  -0.007199  -0.028142
     19      -0.000272  -0.000501  -0.000352   0.004586  -0.024747  -0.073815
     20      -0.000007   0.000372   0.000037  -0.000283   0.004407   0.015008
     21      -0.000113   0.000428   0.000690   0.034768   0.017429   0.001988
     22      -0.000104  -0.000778  -0.000536  -0.048291  -0.021665  -0.000720
     23       0.000084  -0.000323  -0.000321  -0.005213  -0.002816  -0.000438
     24       0.000145   0.000283   0.000168   0.004765  -0.009168   0.007439
     25       0.000055   0.000181  -0.000023  -0.001678   0.003114  -0.002275
     26      -0.000044  -0.000049  -0.000032  -0.001098   0.002097  -0.001826
     27       0.000265   0.000036  -0.000283   0.015280   0.003145  -0.004016
     28      -0.000087   0.000258  -0.000150   0.043612   0.018793  -0.012964
     29      -0.000037  -0.000064   0.000078  -0.008037  -0.002554   0.002267
     30      -0.000481  -0.000091   0.000116  -0.001189   0.005890  -0.001758
     31       0.000137  -0.000149  -0.000084   0.000305  -0.000823   0.001366
     32       0.000141   0.000039  -0.000029   0.000310  -0.001511   0.000325
     33      -0.106539   0.260252   0.152267  -0.006258  -0.001629   0.002864
     34       0.229537  -0.560272  -0.332078   0.008009   0.001886  -0.003764
     35       0.101228  -0.254434  -0.149119   0.004255   0.001669  -0.002394
     36       0.001426  -0.048035  -0.015309  -0.000444   0.000433   0.002890
     37      -0.035156  -0.398724  -0.126275  -0.000407   0.003242   0.007239
     38       0.034290   0.409851   0.131107   0.001030  -0.002949  -0.007939
     39      -0.525922  -0.420456   0.621065   0.002149  -0.001885   0.001784
     40      -0.085695  -0.080845   0.121376   0.000700  -0.000550   0.000314
     41       0.175746   0.137316  -0.198353  -0.000855   0.000423  -0.000008
     42       0.293029  -0.037356   0.212210  -0.002082   0.001680  -0.001768
     43      -0.660711   0.102417  -0.517945   0.004400  -0.001974   0.004430
     44      -0.284156   0.041612  -0.220108   0.002362  -0.001242   0.002412
     45       0.001830   0.002091   0.001032  -0.014692   0.100604   0.309288
     46       0.004847   0.002570   0.000952  -0.045850   0.283562   0.865641
     47      -0.000858  -0.001650  -0.000352   0.008777  -0.055659  -0.170082
     48      -0.000064  -0.005090  -0.005662  -0.429892  -0.198952  -0.012427
     49       0.000664   0.003818   0.005840   0.561500   0.257931   0.013992
     50      -0.000263   0.001967   0.001529   0.066833   0.030917   0.001964
     51       0.000226  -0.001289   0.000405  -0.182858  -0.073050   0.051876
     52       0.000205  -0.003889   0.001310  -0.521397  -0.217979   0.150539
     53      -0.000179   0.000924   0.000077   0.096543   0.039530  -0.027832
     54       0.013425   0.010329  -0.014701  -0.001277  -0.000712   0.000363
     55       0.002676   0.002175  -0.002431  -0.000434  -0.000524   0.000234
     56      -0.002792   0.000789  -0.000313  -0.000201  -0.000021  -0.000554
     57      -0.007182   0.002310  -0.004379   0.000011   0.000230  -0.000053
     58       0.014728  -0.004981   0.011959  -0.000995  -0.000350   0.000020
     59       0.007090  -0.000610   0.011186  -0.000572  -0.000096  -0.000155
     60      -0.005559  -0.000397  -0.001306  -0.359919   0.746519  -0.264138
     61      -0.002500   0.000111  -0.000748  -0.171607   0.357253  -0.125385
     62       0.001696   0.000063   0.000432   0.113365  -0.235239   0.082892
                 60         61         62    
      0      -0.001040   0.000002  -0.000004
      1      -0.001022  -0.000036  -0.000030
      2       0.000375   0.000019  -0.000016
      3       0.000682   0.000030   0.000023
      4      -0.000058   0.000007  -0.000001
      5      -0.000199  -0.000017   0.000002
      6       0.000115  -0.030567  -0.064171
      7       0.000160  -0.047787   0.036030
      8      -0.000020   0.002831   0.029606
      9       0.000373  -0.000207   0.000018
     10      -0.000283   0.000430  -0.000268
     11      -0.000485  -0.000152  -0.000312
     12       0.001998   0.000313   0.000136
     13       0.001750   0.000217   0.000172
     14      -0.000738  -0.000009  -0.000010
     15       0.000219  -0.001877  -0.002328
     16      -0.000265  -0.002391   0.001347
     17      -0.000113  -0.001266   0.001817
     18       0.003685  -0.000054  -0.000012
     19       0.011105   0.000059   0.000024
     20      -0.002125   0.000035  -0.000003
     21       0.033980   0.000056  -0.000023
     22      -0.042014  -0.000338  -0.000100
     23      -0.005564   0.000140   0.000113
     24      -0.000537   0.000023  -0.000014
     25       0.000706   0.000065   0.000049
     26       0.000095  -0.000010  -0.000016
     27      -0.023038  -0.000106  -0.000068
     28      -0.062386  -0.000046  -0.000027
     29       0.011929  -0.000027  -0.000002
     30      -0.003232  -0.000020  -0.000007
     31       0.001556  -0.000063  -0.000034
     32       0.000758  -0.000006   0.000001
     33      -0.004865   0.002340  -0.001850
     34       0.005481  -0.001698   0.001653
     35       0.002923   0.000642  -0.000516
     36      -0.002135  -0.001119  -0.000037
     37      -0.003558   0.001440  -0.001097
     38       0.004149  -0.002284   0.001030
     39      -0.002532   0.013695   0.014659
     40      -0.000159   0.000496   0.001155
     41      -0.000033  -0.004850  -0.006124
     42      -0.001496  -0.006907   0.007622
     43       0.003438   0.011139  -0.013867
     44       0.001829   0.006625  -0.006384
     45      -0.044646  -0.000106  -0.000071
     46      -0.128295  -0.000621  -0.000268
     47       0.024918   0.000139   0.000023
     48      -0.374106  -0.001779  -0.000245
     49       0.482480   0.002257   0.000292
     50       0.058691  -0.000035  -0.000191
     51       0.253634   0.000268   0.000182
     52       0.717008   0.000702   0.000344
     53      -0.133699  -0.000171  -0.000029
     54      -0.002004   0.729941   0.574538
     55      -0.000731   0.164347   0.160522
     56       0.001073  -0.225378  -0.155936
     57       0.000410  -0.290117   0.323852
     58      -0.001002   0.510795  -0.662938
     59      -0.000455   0.201521  -0.261912
     60       0.021581   0.000338   0.000152
     61       0.010656   0.000252   0.000163
     62      -0.006662  -0.000126  -0.000072


-----------
IR SPECTRUM
-----------

 Mode   freq       eps      Int      T**2         TX        TY        TZ
       cm**-1   L/(mol*cm) km/mol    a.u.
----------------------------------------------------------------------------
  6:     32.56   0.000146    0.74  0.001397  ( 0.001905 -0.034598  0.014018)
  7:     72.18   0.000325    1.64  0.001405  (-0.019408  0.009111 -0.030741)
  8:    132.29   0.000729    3.68  0.001719  ( 0.038698 -0.011065 -0.009963)
  9:    177.10   0.000621    3.14  0.001094  ( 0.030201  0.000395 -0.013467)
 10:    231.95   0.002809   14.20  0.003779  ( 0.015592 -0.003030 -0.059388)
 11:    261.02   0.012222   61.77  0.014613  (-0.084113  0.076901  0.040299)
 12:    288.85   0.006886   34.80  0.007439  (-0.017121 -0.080436  0.026002)
 13:    314.82   0.002999   15.16  0.002973  (-0.019556  0.045432  0.022950)
 14:    353.45   0.001709    8.64  0.001509  ( 0.024494 -0.024308  0.017843)
 15:    418.38   0.001945    9.83  0.001451  ( 0.001951 -0.009732  0.036776)
 16:    423.85   0.001170    5.91  0.000861  (-0.024483 -0.006895 -0.014634)
 17:    473.98   0.000097    0.49  0.000064  (-0.000664 -0.000306 -0.007964)
 18:    506.20   0.003262   16.49  0.002011  (-0.041988  0.014788 -0.005433)
 19:    594.44   0.000392    1.98  0.000206  (-0.004046  0.013436 -0.003007)
 20:    620.45   0.003405   17.21  0.001713  (-0.002146  0.006276  0.040848)
 21:    698.04   0.003904   19.73  0.001745  (-0.040046 -0.011784 -0.001638)
 22:    713.71   0.000064    0.33  0.000028  (-0.001060 -0.003443 -0.003891)
 23:    758.64   0.008371   42.30  0.003443  ( 0.013472  0.007192  0.056659)
 24:    778.27   0.024753  125.09  0.009925  ( 0.030055  0.005516  0.094823)
 25:    786.30   0.009418   47.60  0.003738  ( 0.059054 -0.015015 -0.005018)
 26:    814.00   0.004210   21.28  0.001614  (-0.000129  0.004544  0.039917)
 27:    841.41   0.002161   10.92  0.000802  ( 0.015473  0.012603  0.020085)
 28:    849.58   0.025489  128.81  0.009363  (-0.043634  0.030032 -0.080973)
 29:    855.47   0.000885    4.47  0.000323  (-0.002343  0.008422 -0.015701)
 30:    897.27   0.027264  137.78  0.009482  ( 0.044523  0.004501  0.086485)
 31:    940.03   0.011533   58.28  0.003829  (-0.035904  0.048475 -0.013772)
 32:    982.83   0.017437   88.12  0.005537  (-0.040539  0.004295 -0.062247)
 33:   1052.83   0.000544    2.75  0.000161  ( 0.000013  0.011675  0.004993)
 34:   1090.84   0.008799   44.47  0.002517  (-0.028223 -0.041432  0.002034)
 35:   1108.87   0.003235   16.35  0.000910  ( 0.026928 -0.011718 -0.006921)
 36:   1126.64   0.007185   36.31  0.001990  ( 0.028351 -0.034159  0.004431)
 37:   1174.88   0.001968    9.94  0.000523  ( 0.012693 -0.018942 -0.001661)
 38:   1195.81   0.004802   24.26  0.001253  (-0.033758 -0.002803 -0.010273)
 39:   1233.82   0.049690  251.11  0.012568  ( 0.094650 -0.056278 -0.021024)
 40:   1255.97   0.064524  326.08  0.016032  (-0.091248  0.086428  0.015357)
 41:   1278.52   0.053492  270.33  0.013056  (-0.105820  0.024745  0.035304)
 42:   1298.17   0.006978   35.26  0.001677  (-0.039997 -0.008626  0.001802)
 43:   1325.88   0.008500   42.95  0.002001  (-0.041521  0.010727 -0.012706)
 44:   1339.65   0.004982   25.18  0.001161  ( 0.033354 -0.006496 -0.002447)
 45:   1373.57   0.015759   79.64  0.003580  (-0.006378  0.059090 -0.006928)
 46:   1406.57   0.002292   11.58  0.000508  (-0.015329 -0.011497 -0.011886)
 47:   1422.96   0.000340    1.72  0.000075  (-0.000456 -0.008611 -0.000552)
 48:   1461.02   0.058525  295.76  0.012500  ( 0.098306 -0.048738 -0.021474)
 49:   1480.53   0.074469  376.33  0.015696  ( 0.120214  0.014522 -0.032157)
 50:   1539.78   0.023848  120.52  0.004833  (-0.054745 -0.038869  0.018039)
 51:   1582.91   0.007612   38.47  0.001501  ( 0.015487  0.035441 -0.002167)
 52:   1595.97   0.001618    8.17  0.000316  ( 0.016801  0.003909 -0.004330)
 53:   2935.14   0.016483   83.30  0.001752  (-0.022269 -0.000590  0.035443)
 54:   2949.31   0.017910   90.51  0.001895  ( 0.026205  0.034178 -0.006342)
 55:   2980.34   0.014638   73.97  0.001533  ( 0.014802  0.033535 -0.013746)
 56:   2995.91   0.021842  110.38  0.002275  (-0.038791  0.024276  0.013454)
 57:   3062.47   0.005698   28.79  0.000581  ( 0.003920 -0.023760  0.000811)
 58:   3064.62   0.052328  264.45  0.005328  ( 0.053985  0.045392 -0.018804)
 59:   3070.64   0.031422  158.79  0.003193  (-0.023408 -0.050044  0.011872)
 60:   3082.85   0.008770   44.32  0.000888  (-0.000443 -0.029752  0.001527)
 61:   3360.19   0.000626    3.16  0.000058  ( 0.006254 -0.003219  0.002936)
 62:   3429.01   0.001065    5.38  0.000097  ( 0.009745 -0.000142  0.001381)

* The epsilon (eps) is given for a Dirac delta lineshape.
** The dipole moment derivative (T) already includes vibrational overlap.

The first frequency considered to be a vibration is 6
The total number of vibrations considered is 57


--------------------------
THERMOCHEMISTRY AT 298.15K
--------------------------

Temperature         ... 298.15 K
Pressure            ... 1.00 atm
Total Mass          ... 152.17 AMU

Throughout the following assumptions are being made:
  (1) The electronic state is orbitally nondegenerate
  (2) There are no thermally accessible electronically excited states
  (3) Hindered rotations indicated by low frequency modes are not
      treated as such but are treated as vibrations and this may
      cause some error
  (4) All equations used are the standard statistical mechanics
      equations for an ideal gas
  (5) All vibrations are strictly harmonic

freq.      32.56  E(vib)   ...       0.55 
freq.      72.18  E(vib)   ...       0.50 
freq.     132.29  E(vib)   ...       0.42 
freq.     177.10  E(vib)   ...       0.37 
freq.     231.95  E(vib)   ...       0.32 
freq.     261.02  E(vib)   ...       0.30 
freq.     288.85  E(vib)   ...       0.27 
freq.     314.82  E(vib)   ...       0.25 
freq.     353.45  E(vib)   ...       0.22 
freq.     418.38  E(vib)   ...       0.18 
freq.     423.85  E(vib)   ...       0.18 
freq.     473.98  E(vib)   ...       0.15 
freq.     506.20  E(vib)   ...       0.14 
freq.     594.44  E(vib)   ...       0.10 
freq.     620.45  E(vib)   ...       0.09 
freq.     698.04  E(vib)   ...       0.07 
freq.     713.71  E(vib)   ...       0.07 
freq.     758.64  E(vib)   ...       0.06 
freq.     778.27  E(vib)   ...       0.05 
freq.     786.30  E(vib)   ...       0.05 
freq.     814.00  E(vib)   ...       0.05 
freq.     841.41  E(vib)   ...       0.04 
freq.     849.58  E(vib)   ...       0.04 
freq.     855.47  E(vib)   ...       0.04 
freq.     897.27  E(vib)   ...       0.03 
freq.     940.03  E(vib)   ...       0.03 
freq.     982.83  E(vib)   ...       0.02 
freq.    1052.83  E(vib)   ...       0.02 
freq.    1090.84  E(vib)   ...       0.02 
freq.    1108.87  E(vib)   ...       0.02 
freq.    1126.64  E(vib)   ...       0.01 
freq.    1174.88  E(vib)   ...       0.01 
freq.    1195.81  E(vib)   ...       0.01 
freq.    1233.82  E(vib)   ...       0.01 
freq.    1255.97  E(vib)   ...       0.01 
freq.    1278.52  E(vib)   ...       0.01 
freq.    1298.17  E(vib)   ...       0.01 
freq.    1325.88  E(vib)   ...       0.01 
freq.    1339.65  E(vib)   ...       0.01 
freq.    1373.57  E(vib)   ...       0.01 
freq.    1406.57  E(vib)   ...       0.00 
freq.    1422.96  E(vib)   ...       0.00 
freq.    1461.02  E(vib)   ...       0.00 
freq.    1480.53  E(vib)   ...       0.00 
freq.    1539.78  E(vib)   ...       0.00 
freq.    1582.91  E(vib)   ...       0.00 
freq.    1595.97  E(vib)   ...       0.00 
freq.    2935.14  E(vib)   ...       0.00 
freq.    2949.31  E(vib)   ...       0.00 
freq.    2980.34  E(vib)   ...       0.00 
freq.    2995.91  E(vib)   ...       0.00 
freq.    3062.47  E(vib)   ...       0.00 
freq.    3064.62  E(vib)   ...       0.00 
freq.    3070.64  E(vib)   ...       0.00 
freq.    3082.85  E(vib)   ...       0.00 
freq.    3360.19  E(vib)   ...       0.00 
freq.    3429.01  E(vib)   ...       0.00 

------------
INNER ENERGY
------------

The inner energy is: U= E(el) + E(ZPE) + E(vib) + E(rot) + E(trans)
    E(el)   - is the total energy from the electronic structure calculation
              = E(kin-el) + E(nuc-el) + E(el-el) + E(nuc-nuc)
    E(ZPE)  - the the zero temperature vibrational energy from the frequency calculation
    E(vib)  - the the finite temperature correction to E(ZPE) due to population
              of excited vibrational states
    E(rot)  - is the rotational thermal energy
    E(trans)- is the translational thermal energy

Summary of contributions to the inner energy U:
Electronic energy                ...   -515.81413408 Eh
Zero point energy                ...      0.16423932 Eh     103.06 kcal/mol
Thermal vibrational correction   ...      0.00760932 Eh       4.77 kcal/mol
Thermal rotational correction    ...      0.00141627 Eh       0.89 kcal/mol
Thermal translational correction ...      0.00141627 Eh       0.89 kcal/mol
-----------------------------------------------------------------------
Total thermal energy                   -515.63945289 Eh


Summary of corrections to the electronic energy:
(perhaps to be used in another calculation)
Total thermal correction                  0.01044187 Eh       6.55 kcal/mol
Non-thermal (ZPE) correction              0.16423932 Eh     103.06 kcal/mol
-----------------------------------------------------------------------
Total correction                          0.17468119 Eh     109.61 kcal/mol


--------
ENTHALPY
--------

The enthalpy is H = U + kB*T
                kB is Boltzmann's constant
Total free energy                 ...   -515.63945289 Eh 
Thermal Enthalpy correction       ...      0.00094421 Eh       0.59 kcal/mol
-----------------------------------------------------------------------
Total Enthalpy                    ...   -515.63850868 Eh


Note: Only C1 symmetry has been detected, increase convergence thresholds 
      if your molecule has a higher symmetry. Symmetry factor of 1.0 is   
      used for the rotational entropy correction. 
 

Note: Rotational entropy computed according to Herzberg 
Infrared and Raman Spectra, Chapter V,1, Van Nostrand Reinhold, 1945 
Point Group:  C1, Symmetry Number:   1  
Rotational constants in cm-1:     0.075469     0.021467     0.018915 

Vibrational entropy computed according to the QRRHO of S. Grimme
Chem.Eur.J. 2012 18 9955


-------
ENTROPY
-------

The entropy contributions are T*S = T*(S(el)+S(vib)+S(rot)+S(trans))
     S(el)   - electronic entropy
     S(vib)  - vibrational entropy
     S(rot)  - rotational entropy
     S(trans)- translational entropy
The entropies will be listed as multiplied by the temperature to get
units of energy

Electronic entropy                ...      0.00000000 Eh      0.00 kcal/mol
Vibrational entropy               ...      0.01285954 Eh      8.07 kcal/mol
Rotational entropy                ...      0.01441728 Eh      9.05 kcal/mol
Translational entropy             ...      0.01946586 Eh     12.21 kcal/mol
-----------------------------------------------------------------------
Final entropy term                ...      0.04674268 Eh     29.33 kcal/mol

In case the symmetry of your molecule has not been determined correctly
or in case you have a reason to use a different symmetry number we print 
out the resulting rotational entropy values for sn=1,12 :
 --------------------------------------------------------
|  sn= 1 | S(rot)=       0.01441728 Eh      9.05 kcal/mol|
|  sn= 2 | S(rot)=       0.01376282 Eh      8.64 kcal/mol|
|  sn= 3 | S(rot)=       0.01337999 Eh      8.40 kcal/mol|
|  sn= 4 | S(rot)=       0.01310836 Eh      8.23 kcal/mol|
|  sn= 5 | S(rot)=       0.01289768 Eh      8.09 kcal/mol|
|  sn= 6 | S(rot)=       0.01272553 Eh      7.99 kcal/mol|
|  sn= 7 | S(rot)=       0.01257998 Eh      7.89 kcal/mol|
|  sn= 8 | S(rot)=       0.01245391 Eh      7.81 kcal/mol|
|  sn= 9 | S(rot)=       0.01234270 Eh      7.75 kcal/mol|
|  sn=10 | S(rot)=       0.01224322 Eh      7.68 kcal/mol|
|  sn=11 | S(rot)=       0.01215323 Eh      7.63 kcal/mol|
|  sn=12 | S(rot)=       0.01207107 Eh      7.57 kcal/mol|
 --------------------------------------------------------


-------------------
GIBBS FREE ENERGY
-------------------

The Gibbs free energy is G = H - T*S

Total enthalpy                    ...   -515.63850868 Eh 
Total entropy correction          ...     -0.04674268 Eh    -29.33 kcal/mol
-----------------------------------------------------------------------
Final Gibbs free energy         ...   -515.68525136 Eh

For completeness - the Gibbs free energy minus the electronic energy
G-E(el)                           ...      0.12888272 Eh     80.87 kcal/mol


No protocol specified

Timings for individual modules:

Sum of individual times         ...      895.731 sec (=  14.929 min)
GTO integral calculation        ...        4.030 sec (=   0.067 min)   0.4 %
SCF iterations                  ...       33.810 sec (=   0.563 min)   3.8 %
SCF Gradient evaluation         ...       11.121 sec (=   0.185 min)   1.2 %
Geometry relaxation             ...        0.060 sec (=   0.001 min)   0.0 %
Numerical frequency calculation ...      846.709 sec (=  14.112 min)  94.5 %
                             ****ORCA TERMINATED NORMALLY****
TOTAL RUN TIME: 0 days 0 hours 14 minutes 45 seconds 376 msec
