
                                 *****************
                                 * O   R   C   A *
                                 *****************

                                            #,                                       
                                            ###                                      
                                            ####                                     
                                            #####                                    
                                            ######                                   
                                           ########,                                 
                                     ,,################,,,,,                         
                               ,,#################################,,                 
                          ,,##########################################,,             
                       ,#########################################, ''#####,          
                    ,#############################################,,   '####,        
                  ,##################################################,,,,####,       
                ,###########''''           ''''###############################       
              ,#####''   ,,,,##########,,,,          '''####'''          '####       
            ,##' ,,,,###########################,,,                        '##       
           ' ,,###''''                  '''############,,,                           
         ,,##''                                '''############,,,,        ,,,,,,###''
      ,#''                                            '''#######################'''  
     '                                                          ''''####''''         
             ,#######,   #######,   ,#######,      ##                                
            ,#'     '#,  ##    ##  ,#'     '#,    #''#        ######   ,####,        
            ##       ##  ##   ,#'  ##            #'  '#       #        #'  '#        
            ##       ##  #######   ##           ,######,      #####,   #    #        
            '#,     ,#'  ##    ##  '#,     ,#' ,#      #,         ##   #,  ,#        
             '#######'   ##     ##  '#######'  #'      '#     #####' # '####'        



                  #######################################################
                  #                        -***-                        #
                  #          Department of theory and spectroscopy      #
                  #    Directorship and core code : Frank Neese         #
                  #        Max Planck Institute fuer Kohlenforschung    #
                  #                Kaiser Wilhelm Platz 1               #
                  #                 D-45470 Muelheim/Ruhr               #
                  #                      Germany                        #
                  #                                                     #
                  #                  All rights reserved                #
                  #                        -***-                        #
                  #######################################################


                         Program Version 5.0.2 -  RELEASE  -


 With contributions from (in alphabetic order):
   Daniel Aravena         : Magnetic Suceptibility
   Michael Atanasov       : Ab Initio Ligand Field Theory (pilot matlab implementation)
   Alexander A. Auer      : GIAO ZORA, VPT2 properties, NMR spectrum
   Ute Becker             : Parallelization
   Giovanni Bistoni       : ED, misc. LED, open-shell LED, HFLD
   Martin Brehm           : Molecular dynamics
   Dmytro Bykov           : SCF Hessian
   Vijay G. Chilkuri      : MRCI spin determinant printing, contributions to CSF-ICE
   Dipayan Datta          : RHF DLPNO-CCSD density
   Achintya Kumar Dutta   : EOM-CC, STEOM-CC
   Dmitry Ganyushin       : Spin-Orbit,Spin-Spin,Magnetic field MRCI
   Miquel Garcia          : C-PCM and meta-GGA Hessian, CC/C-PCM, Gaussian charge scheme
   Yang Guo               : DLPNO-NEVPT2, F12-NEVPT2, CIM, IAO-localization
   Andreas Hansen         : Spin unrestricted coupled pair/coupled cluster methods
   Benjamin Helmich-Paris : MC-RPA, TRAH-SCF, COSX integrals
   Lee Huntington         : MR-EOM, pCC
   Robert Izsak           : Overlap fitted RIJCOSX, COSX-SCS-MP3, EOM
   Marcus Kettner         : VPT2
   Christian Kollmar      : KDIIS, OOCD, Brueckner-CCSD(T), CCSD density, CASPT2, CASPT2-K
   Simone Kossmann        : Meta GGA functionals, TD-DFT gradient, OOMP2, MP2 Hessian
   Martin Krupicka        : Initial AUTO-CI
   Lucas Lang             : DCDCAS
   Marvin Lechner         : AUTO-CI (C++ implementation), FIC-MRCC
   Dagmar Lenk            : GEPOL surface, SMD
   Dimitrios Liakos       : Extrapolation schemes; Compound Job, initial MDCI parallelization
   Dimitrios Manganas     : Further ROCIS development; embedding schemes
   Dimitrios Pantazis     : SARC Basis sets
   Anastasios Papadopoulos: AUTO-CI, single reference methods and gradients
   Taras Petrenko         : DFT Hessian,TD-DFT gradient, ASA, ECA, R-Raman, ABS, FL, XAS/XES, NRVS
   Peter Pinski           : DLPNO-MP2, DLPNO-MP2 Gradient
   Christoph Reimann      : Effective Core Potentials
   Marius Retegan         : Local ZFS, SOC
   Christoph Riplinger    : Optimizer, TS searches, QM/MM, DLPNO-CCSD(T), (RO)-DLPNO pert. Triples
   Tobias Risthaus        : Range-separated hybrids, TD-DFT gradient, RPA, STAB
   Michael Roemelt        : Original ROCIS implementation
   Masaaki Saitow         : Open-shell DLPNO-CCSD energy and density
   Barbara Sandhoefer     : DKH picture change effects
   Avijit Sen             : IP-ROCIS
   Kantharuban Sivalingam : CASSCF convergence, NEVPT2, FIC-MRCI
   Bernardo de Souza      : ESD, SOC TD-DFT
   Georgi Stoychev        : AutoAux, RI-MP2 NMR, DLPNO-MP2 response
   Willem Van den Heuvel  : Paramagnetic NMR
   Boris Wezisla          : Elementary symmetry handling
   Frank Wennmohs         : Technical directorship


 We gratefully acknowledge several colleagues who have allowed us to
 interface, adapt or use parts of their codes:
   Stefan Grimme, W. Hujo, H. Kruse, P. Pracht,  : VdW corrections, initial TS optimization,
                  C. Bannwarth, S. Ehlert          DFT functionals, gCP, sTDA/sTD-DF
   Ed Valeev, F. Pavosevic, A. Kumar             : LibInt (2-el integral package), F12 methods
   Garnet Chan, S. Sharma, J. Yang, R. Olivares  : DMRG
   Ulf Ekstrom                                   : XCFun DFT Library
   Mihaly Kallay                                 : mrcc  (arbitrary order and MRCC methods)
   Jiri Pittner, Ondrej Demel                    : Mk-CCSD
   Frank Weinhold                                : gennbo (NPA and NBO analysis)
   Christopher J. Cramer and Donald G. Truhlar   : smd solvation model
   Lars Goerigk                                  : TD-DFT with DH, B97 family of functionals
   V. Asgeirsson, H. Jonsson                     : NEB implementation
   FAccTs GmbH                                   : IRC, NEB, NEB-TS, DLPNO-Multilevel, CI-OPT
                                                   MM, QMMM, 2- and 3-layer-ONIOM, Crystal-QMMM,
                                                   LR-CPCM, SF, NACMEs, symmetry and pop. for TD-DFT,
                                                   nearIR, NL-DFT gradient (VV10), updates on ESD,
                                                   ML-optimized integration grids
   S Lehtola, MJT Oliveira, MAL Marques          : LibXC Library
   Liviu Ungur et al                             : ANISO software


 Your calculation uses the libint2 library for the computation of 2-el integrals
 For citations please refer to: http://libint.valeyev.net

 Your ORCA version has been built with support for libXC version: 5.1.0
 For citations please refer to: https://tddft.org/programs/libxc/

 This ORCA versions uses:
   CBLAS   interface :  Fast vector & matrix operations
   LAPACKE interface :  Fast linear algebra routines
   SCALAPACK package :  Parallel linear algebra routines
   Shared memory     :  Shared parallel matrices
   BLAS/LAPACK       :  OpenBLAS 0.3.15  USE64BITINT DYNAMIC_ARCH NO_AFFINITY Haswell SINGLE_THREADED
        Core in use  :  Haswell
   Copyright (c) 2011-2014, The OpenBLAS Project


Your calculation utilizes the atom-pairwise dispersion correction
with the Becke-Johnson damping scheme (D3BJ)
Cite in your paper:
S.Grimme, S.Ehrlich, L.Goerigk, J Comput Chem, (2011), 32, 1456–1465 
S.Grimme, J.Antony, S.Ehrlich and H.Krieg, J.Chem.Phys., 132, (2010), 154104 
   

================================================================================

----- Orbital basis set information -----
Your calculation utilizes the basis: def2-TZVP
   F. Weigend and R. Ahlrichs, Phys. Chem. Chem. Phys. 7, 3297 (2005).

----- AuxJ basis set information -----
Your calculation utilizes the auxiliary basis: def2/J
   F. Weigend, Phys. Chem. Chem. Phys. 8, 1057 (2006).

================================================================================
                                        WARNINGS
                       Please study these warnings very carefully!
================================================================================


WARNING: The environment variable RSH_COMMAND is not set!
  ===> : All Displacements for the Numerical Hessian or Gradient calculation
         will be started on localhost

INFO   : the flag for use of the SHARK integral package has been found!

Your calculation utilizes the atom-pairwise dispersion correction
with the Becke-Johnson damping scheme (D3BJ)
Cite in your paper:
S.Grimme, S.Ehrlich, L.Goerigk, J Comput Chem, (2011), 32, 1456–1465 
S.Grimme, J.Antony, S.Ehrlich and H.Krieg, J.Chem.Phys., 132, (2010), 154104 
   

================================================================================

----- Orbital basis set information -----
Your calculation utilizes the basis: def2-TZVP
   F. Weigend and R. Ahlrichs, Phys. Chem. Chem. Phys. 7, 3297 (2005).

----- AuxJ basis set information -----
Your calculation utilizes the auxiliary basis: def2/J
   F. Weigend, Phys. Chem. Chem. Phys. 8, 1057 (2006).

================================================================================
                                        WARNINGS
                       Please study these warnings very carefully!
================================================================================


WARNING: MOInp is set but Guess=PModel. MOInp will be ignored!
         To read the initial guess from a file you must also specify
         'MORead' in the simple input or 'Guess MORead' in the %scf block


WARNING: The environment variable RSH_COMMAND is not set!
  ===> : All Displacements for the Numerical Hessian or Gradient calculation
         will be started on localhost

INFO   : the flag for use of the SHARK integral package has been found!

Your calculation utilizes the atom-pairwise dispersion correction
with the Becke-Johnson damping scheme (D3BJ)
Cite in your paper:
S.Grimme, S.Ehrlich, L.Goerigk, J Comput Chem, (2011), 32, 1456–1465 
S.Grimme, J.Antony, S.Ehrlich and H.Krieg, J.Chem.Phys., 132, (2010), 154104 
   

================================================================================

----- Orbital basis set information -----
Your calculation utilizes the basis: def2-TZVP
   F. Weigend and R. Ahlrichs, Phys. Chem. Chem. Phys. 7, 3297 (2005).

----- AuxJ basis set information -----
Your calculation utilizes the auxiliary basis: def2/J
   F. Weigend, Phys. Chem. Chem. Phys. 8, 1057 (2006).

================================================================================
                                        WARNINGS
                       Please study these warnings very carefully!
================================================================================


WARNING: MOInp is set but Guess=PModel. MOInp will be ignored!
         To read the initial guess from a file you must also specify
         'MORead' in the simple input or 'Guess MORead' in the %scf block


WARNING: The environment variable RSH_COMMAND is not set!
  ===> : All Displacements for the Numerical Hessian or Gradient calculation
         will be started on localhost

INFO   : the flag for use of the SHARK integral package has been found!

Your calculation utilizes the atom-pairwise dispersion correction
with the Becke-Johnson damping scheme (D3BJ)
Cite in your paper:
S.Grimme, S.Ehrlich, L.Goerigk, J Comput Chem, (2011), 32, 1456–1465 
S.Grimme, J.Antony, S.Ehrlich and H.Krieg, J.Chem.Phys., 132, (2010), 154104 
   

================================================================================

----- Orbital basis set information -----
Your calculation utilizes the basis: def2-TZVP
   F. Weigend and R. Ahlrichs, Phys. Chem. Chem. Phys. 7, 3297 (2005).

----- AuxJ basis set information -----
Your calculation utilizes the auxiliary basis: def2/J
   F. Weigend, Phys. Chem. Chem. Phys. 8, 1057 (2006).

================================================================================
                                        WARNINGS
                       Please study these warnings very carefully!
================================================================================


WARNING: MOInp is set but Guess=PModel. MOInp will be ignored!
         To read the initial guess from a file you must also specify
         'MORead' in the simple input or 'Guess MORead' in the %scf block


WARNING: The environment variable RSH_COMMAND is not set!
  ===> : All Displacements for the Numerical Hessian or Gradient calculation
         will be started on localhost

INFO   : the flag for use of the SHARK integral package has been found!

Your calculation utilizes the atom-pairwise dispersion correction
with the Becke-Johnson damping scheme (D3BJ)
Cite in your paper:
S.Grimme, S.Ehrlich, L.Goerigk, J Comput Chem, (2011), 32, 1456–1465 
S.Grimme, J.Antony, S.Ehrlich and H.Krieg, J.Chem.Phys., 132, (2010), 154104 
   

================================================================================

----- Orbital basis set information -----
Your calculation utilizes the basis: def2-TZVP
   F. Weigend and R. Ahlrichs, Phys. Chem. Chem. Phys. 7, 3297 (2005).

----- AuxJ basis set information -----
Your calculation utilizes the auxiliary basis: def2/J
   F. Weigend, Phys. Chem. Chem. Phys. 8, 1057 (2006).

================================================================================
                                        WARNINGS
                       Please study these warnings very carefully!
================================================================================


WARNING: MOInp is set but Guess=PModel. MOInp will be ignored!
         To read the initial guess from a file you must also specify
         'MORead' in the simple input or 'Guess MORead' in the %scf block


WARNING: The environment variable RSH_COMMAND is not set!
  ===> : All Displacements for the Numerical Hessian or Gradient calculation
         will be started on localhost

INFO   : the flag for use of the SHARK integral package has been found!

================================================================================
                                       INPUT FILE
================================================================================
NAME = ex.inp
|  1> ! PBE D3 def2-TZVP opt numfreq PModel NOAUTOSTART cpcm(water)
|  2> %pal nprocs=16 end
|  3> %geom maxiter=150 end
|  4> %base "neutral"
|  5> *xyz 0 1
|  6>   C   -0.11334494129279     -1.03166041195060     -0.46244924195465
|  7>   C   -1.04412401771700      1.56762266624798     -0.05995728330168
|  8>   C   -1.44030338292954     -0.82215333820713     -0.09456184012306
|  9>   C   0.77040434593836      0.04616638706563     -0.63837166116905
| 10>   C   0.28804890750347      1.34507540058950     -0.43101874475530
| 11>   C   -1.91057975702783      0.49067805035505      0.10987871816309
| 12>   O   -3.23421917419051      0.59968197760844      0.46595375193712
| 13>   O   -2.28114117168859     -1.89359001235006      0.06164182672224
| 14>   C   2.21610236029662     -0.20810576751910     -0.97839303210033
| 15>   C   3.06823701835158     -0.56369231425864      0.26019132382511
| 16>   N   3.16809037415329      0.47894727553754      1.28877794877594
| 17>   H   0.22798394906138     -2.05839503712956     -0.61671102249035
| 18>   H   -1.41853036504768      2.58273804951238      0.09611219539191
| 19>   H   0.95637087035374      2.19735341416070     -0.56806739854643
| 20>   H   -3.46365796983530      1.53974552377028      0.58553481165528
| 21>   H   -3.16189849852237     -1.54780742689413      0.30938824548984
| 22>   H   2.64931995314605      0.68527841837253     -1.45666326115211
| 23>   H   2.29324560931816     -1.03751833228586     -1.70086186515235
| 24>   H   2.65348193467706     -1.47045525367598      0.72987635113232
| 25>   H   4.08747482580694     -0.81458745284374     -0.07383091857779
| 26>   H   2.22387005297922      0.74185224602344      1.58887120508684
| 27>   H   3.55794707666574      1.32650593787133      0.86479789114340
| 28> *
| 29> 
| 30> 
| 31> $new_job
| 32> 
| 33> ! PBE D3 def2-TZVP opt numfreq PModel NOAUTOSTART cpcm(water)
| 34> %pal nprocs=16 end
| 35> %geom maxiter=150 end
| 36> %base "protonated"
| 37> *xyz 1 1
| 38>   C   -1.09729805197983     -1.61283281528588      0.24724281045880
| 39>   C   -0.14726188949321      1.01097285365106      0.37547306029930
| 40>   C   -1.95716487468804     -0.55617414523114     -0.04066691953685
| 41>   C   0.23422240054048     -1.36129539478476      0.59809330760051
| 42>   C   0.72420211613287     -0.05198293958872      0.66909182319326
| 43>   C   -1.47179539661067      0.76748083372475      0.02403247483498
| 44>   O   -3.25922328103353     -0.80345827208601     -0.37924145901448
| 45>   O   -2.38682724147471      1.74461666399888     -0.27313291931251
| 46>   C   2.16894605882182      0.22204361414584      1.01545294352572
| 47>   C   2.99862800960117      0.66180038180528     -0.18739863002251
| 48>   N   3.00134040976725     -0.40128151517580     -1.24959604711152
| 49>   H   2.03742029688537     -0.64652399805483     -1.52343420529399
| 50>   H   3.49953868509562     -0.09041317055026     -2.09421715478299
| 51>   H   3.45787389258436     -1.26332539968409     -0.91931828815209
| 52>   H   -1.48101836678009     -2.63329917080034      0.19751748176916
| 53>   H   0.20535622863000      2.04565401828734      0.42384783499526
| 54>   H   0.89751754432137     -2.19810595959379      0.82650666302151
| 55>   H   -3.69764663291833      0.05731675679277     -0.53438743238533
| 56>   H   -1.96924237590279      2.62303088856654     -0.19772896332813
| 57>   H   2.62385207444776     -0.67470493392516      1.46346855121117
| 58>   H   2.24448751089435      1.02907201524237      1.76009185553190
| 59>   H   2.58722793424890      1.56516243740488     -0.65426007663963
| 60>   H   4.04531794890988      0.84192225114107      0.08424528913845
| 61> 
| 62> *
| 63> 
| 64> 
| 65> $new_job
| 66> 
| 67> ! PBE D3 def2-TZVP opt numfreq PModel NOAUTOSTART cpcm(water)
| 68> %pal nprocs=16 end
| 69> %geom maxiter=150 end
| 70> %base "deprotonated"
| 71> *xyz -1 1
| 72>   C   -1.20346383522031     -1.59296093321310      0.23287271862916
| 73>   C   -0.04478146614797      0.78822425909910     -0.64693051375208
| 74>   C   -1.96964787431014     -0.42865186182137      0.18287123578496
| 75>   C   0.13921018572137     -1.56848436774722     -0.15339138341609
| 76>   C   0.73243063641038     -0.37956123412188     -0.59850744323393
| 77>   C   -1.38587785232242      0.77317101797206     -0.26232626353498
| 78>   O   -3.29241673630739     -0.35053876364222      0.53826058829835
| 79>   O   -2.12115986080684      1.92484046939719     -0.32503507181286
| 80>   C   2.19708475159099     -0.33837877853336     -0.96736727003876
| 81>   C   3.11235987948351     -0.29513503728435      0.25407547813096
| 82>   N   2.85007330825498      0.93744769124448      1.07306016970788
| 83>   H   1.85509706816071      0.99677700139196      1.33911782415240
| 84>   H   3.40817649898306      0.94380105590387      1.93679638504307
| 85>   H   3.07885527096830      1.79371255782853      0.54849702851043
| 86>   H   -1.66793946457948     -2.52143321084736      0.57412817442861
| 87>   H   0.38742377709469      1.72803241178000     -0.99905628257688
| 88>   H   0.72772820623931     -2.48716964571232     -0.11055310697595
| 89>   H   -3.61391924739853     -1.23045158480750      0.81021012613493
| 90>   H   -3.02904927987505      1.71822551721778     -0.02458372960372
| 91>   H   2.40652444428901      0.53105574130824     -1.60935094455335
| 92>   H   2.47595473982009     -1.23703670440785     -1.53734983684102
| 93>   H   2.93791186865964     -1.15139348642240      0.91684995088315
| 94>   H   4.17081298129209     -0.26713311458226     -0.03054583336426
| 95> *
| 96> 
| 97> $new_job
| 98> 
| 99> ! PBE D3 def2-TZVP opt numfreq PModel NOAUTOSTART cpcm(water)
|100> %pal nprocs=16 end
|101> %geom maxiter=150 end
|102> %base "2x_deprotonated"
|103> *xyz -2 1
|104>   O   -2.27044146034476     -2.03487695933698      0.25758858214362
|105>   O   -3.36666034313099      0.45855513127212     -0.51757154294846
|106>   N   2.95371195482559      0.30694702706989     -1.42382515352997
|107>   C   2.14472215801514      0.04616248729810      0.97238548818300
|108>   C   0.67913371056640      0.17809724635510      0.63524243204272
|109>   C   2.98625216771313     -0.50783163592468     -0.19651421527908
|110>   C   -0.16359688141115     -0.96142995149673      0.62118483952316
|111>   C   0.12486119816817      1.40025912599071      0.24944320979275
|112>   C   -1.53632995813944     -0.95506556084907      0.24757858896194
|113>   C   -1.23557303642222      1.47318380250251     -0.12997096178708
|114>   C   -2.11435175044802      0.35710903326682     -0.16025647797586
|115>   H   2.55511253124155      1.03257945501469      1.25322609786926
|116>   H   2.28898431077306     -0.62136589994459      1.84232284970052
|117>   H   2.62021090745784     -1.51734441720487     -0.44853398103498
|118>   H   4.03847562425690     -0.61634385649974      0.11485248166639
|119>   H   0.25687341371924     -1.93273860013753      0.92018741879481
|120>   H   0.74470352703832      2.30376041429633      0.24874830426851
|121>   H   -1.66060438089323      2.44242492461126     -0.42324692092761
|122>   H   3.37309016867010      1.21876320823977     -1.21175885328339
|123>   H   1.96659013834434      0.52403602547689     -1.61197518618027
|124> *
|125> 
|126> $new_job
|127> 
|128> ! PBE D3 def2-TZVP opt numfreq PModel NOAUTOSTART cpcm(water)
|129> %pal nprocs=16 end
|130> %geom maxiter=150 end
|131> %base "zwitterione"
|132> *xyz 0 1
|133>   O   2.83622588126855     -2.20377572803185     -0.03437405418492
|134>   C   2.02272870129354     -1.11707556315131     -0.21158238650166
|135>   C   0.67580569861521     -1.20168754857973     -0.51313778925715
|136>   C   -0.08156344332475     -0.01627439498896     -0.68657735282884
|137>   C   -1.56867475174651     -0.09161761696458     -0.93357258534930
|138>   C   -2.34406699303537     -0.38426964534671      0.35305848248143
|139>   N   -2.02477283029475      0.67138459812777      1.37341625166575
|140>   H   -2.31768936487614      0.40467815153986      2.32150897057174
|141>   H   -1.00039882152761      0.83491206480195      1.37235173327012
|142>   H   -2.47594368449305      1.56693805129839      1.14238862980392
|143>   C   0.56654859098174      1.21682368133489     -0.53739654255149
|144>   C   1.93732803325042      1.30413189128504     -0.23145596766393
|145>   C   2.71958990930509      0.14011622236665     -0.05413813986038
|146>   O   3.99012924905909      0.06621312238054      0.22771169736588
|147>   H   3.70106187411308     -1.71844640410621      0.15839615971598
|148>   H   0.20037952362172     -2.18152139260703     -0.61990857710370
|149>   H   -1.93279483096871      0.85441813863310     -1.36528263365879
|150>   H   -1.82015091710051     -0.89187596688154     -1.64666162725420
|151>   H   -3.43080736439230     -0.38170375498926      0.20688945605659
|152>   H   -2.03618889590783     -1.34189365937954      0.79006222415874
|153>   H   -0.00873551244714      2.13717678244241     -0.67963706381644
|154>   H   2.41591694860623      2.28230997081610     -0.13057588505935
|155> *
|156> 
|157>                          ****END OF INPUT****
================================================================================


                 $$$$$$$$$$$$$$$$$$$$$$$$$$$$$$$$$$$$$$$$$$$$$$ 
                 $ THERE ARE  5 JOBS TO BE PROCESSED THIS RUN $
                 $$$$$$$$$$$$$$$$$$$$$$$$$$$$$$$$$$$$$$$$$$$$$$ 




                 $$$$$$$$$$$$$$$$  JOB NUMBER  1 $$$$$$$$$$$$$$


                       *****************************
                       * Geometry Optimization Run *
                       *****************************

Geometry optimization settings:
Update method            Update   .... BFGS
Choice of coordinates    CoordSys .... Z-matrix Internals
Initial Hessian          InHess   .... Almoef's Model

Convergence Tolerances:
Energy Change            TolE     ....  5.0000e-06 Eh
Max. Gradient            TolMAXG  ....  3.0000e-04 Eh/bohr
RMS Gradient             TolRMSG  ....  1.0000e-04 Eh/bohr
Max. Displacement        TolMAXD  ....  4.0000e-03 bohr
RMS Displacement         TolRMSD  ....  2.0000e-03 bohr
Strict Convergence                ....  False
------------------------------------------------------------------------------
                        ORCA OPTIMIZATION COORDINATE SETUP
------------------------------------------------------------------------------

The optimization will be done in new redundant internal coordinates
Making redundant internal coordinates   ...  (new redundants) done
Evaluating the initial hessian          ...  (Almloef) done
Evaluating the coordinates              ...  done
Calculating the B-matrix                .... done
Calculating the G-matrix                .... done
Diagonalizing the G-matrix              .... done
Small eigenvalue found = 1.749e-02
Small eigenvalue found = 2.993e-02
The first mode is                       ....   46
The number of degrees of freedom        ....   60

    -----------------------------------------------------------------
                    Redundant Internal Coordinates


    -----------------------------------------------------------------
         Definition                    Initial Value    Approx d2E/dq
    -----------------------------------------------------------------
      1. B(C   2,C   0)                  1.3929         0.618271   
      2. B(C   3,C   0)                  1.4049         0.591572   
      3. B(C   4,C   3)                  1.4010         0.600032   
      4. B(C   4,C   1)                  1.4007         0.600762   
      5. B(C   5,C   2)                  1.4094         0.581762   
      6. B(C   5,C   1)                  1.3926         0.618804   
      7. B(O   6,C   5)                  1.3750         0.591245   
      8. B(O   7,C   2)                  1.3709         0.600258   
      9. B(C   8,C   3)                  1.5068         0.406877   
     10. B(C   9,C   8)                  1.5449         0.353697   
     11. B(N  10,C   9)                  1.4680         0.420158   
     12. B(H  11,C   0)                  1.0929         0.356251   
     13. B(H  12,C   1)                  1.0932         0.355945   
     14. B(H  13,C   4)                  1.0917         0.357855   
     15. B(H  14,O   6)                  0.9750         0.492046   
     16. B(H  15,O   7)                  0.9781         0.486509   
     17. B(H  16,C   8)                  1.1021         0.344484   
     18. B(H  17,C   8)                  1.1027         0.343748   
     19. B(H  18,C   9)                  1.1022         0.344317   
     20. B(H  19,C   9)                  1.1015         0.345168   
     21. B(H  20,N  10)                  1.0250         0.409434   
     22. B(H  21,N  10)                  1.0247         0.409892   
     23. A(C   2,C   0,C   3)          121.1294         0.430204   
     24. A(C   3,C   0,H  11)          120.4380         0.349486   
     25. A(C   2,C   0,H  11)          118.4321         0.352101   
     26. A(C   4,C   1,H  12)          120.7379         0.350345   
     27. A(C   5,C   1,H  12)          119.1833         0.352102   
     28. A(C   4,C   1,C   5)          120.0783         0.431463   
     29. A(C   0,C   2,C   5)          119.7553         0.428915   
     30. A(C   5,C   2,O   7)          120.4516         0.423869   
     31. A(C   0,C   2,O   7)          119.7927         0.428515   
     32. A(C   4,C   3,C   8)          121.3454         0.400373   
     33. A(C   0,C   3,C   8)          120.1561         0.399374   
     34. A(C   0,C   3,C   4)          118.4363         0.427899   
     35. A(C   1,C   4,C   3)          120.9285         0.429084   
     36. A(C   3,C   4,H  13)          119.6331         0.350590   
     37. A(C   1,C   4,H  13)          119.4365         0.350662   
     38. A(C   1,C   5,O   6)          124.6945         0.427420   
     39. A(C   1,C   5,C   2)          119.6720         0.428981   
     40. A(C   2,C   5,O   6)          115.6327         0.422725   
     41. A(C   5,O   6,H  14)          109.5552         0.363659   
     42. A(C   2,O   7,H  15)          107.7501         0.363897   
     43. A(C   3,C   8,C   9)          112.7775         0.365265   
     44. A(C   3,C   8,H  17)          109.9940         0.326401   
     45. A(C   9,C   8,H  16)          108.5235         0.319104   
     46. A(C   3,C   8,H  16)          109.7733         0.326516   
     47. A(C   9,C   8,H  17)          108.2752         0.318993   
     48. A(H  16,C   8,H  17)          107.3326         0.286733   
     49. A(C   8,C   9,H  19)          108.6442         0.319207   
     50. A(N  10,C   9,H  18)          108.1388         0.326254   
     51. A(C   8,C   9,H  18)          108.8713         0.319079   
     52. A(N  10,C   9,H  19)          108.1376         0.326387   
     53. A(C   8,C   9,N  10)          115.8356         0.364991   
     54. A(H  18,C   9,H  19)          106.8593         0.286896   
     55. A(H  20,N  10,H  21)          105.0367         0.298014   
     56. A(C   9,N  10,H  21)          108.8696         0.332927   
     57. A(C   9,N  10,H  20)          108.9434         0.332865   
     58. D(C   5,C   2,C   0,C   3)     -0.1701         0.026442   
     59. D(C   5,C   2,C   0,H  11)   -179.9160         0.026442   
     60. D(O   7,C   2,C   0,H  11)     -0.1439         0.026442   
     61. D(O   7,C   2,C   0,C   3)    179.6020         0.026442   
     62. D(C   8,C   3,C   0,C   2)    177.3584         0.024090   
     63. D(C   4,C   3,C   0,C   2)      0.1897         0.024090   
     64. D(C   4,C   3,C   0,H  11)    179.9305         0.024090   
     65. D(C   8,C   3,C   0,H  11)     -2.9007         0.024090   
     66. D(C   1,C   4,C   3,C   8)   -177.2762         0.024820   
     67. D(C   1,C   4,C   3,C   0)     -0.1426         0.024820   
     68. D(H  13,C   4,C   1,H  12)     -0.1915         0.024884   
     69. D(C   3,C   4,C   1,C   5)      0.0777         0.024884   
     70. D(H  13,C   4,C   1,C   5)    179.5750         0.024884   
     71. D(H  13,C   4,C   3,C   0)   -179.6390         0.024820   
     72. D(C   3,C   4,C   1,H  12)   -179.6889         0.024884   
     73. D(H  13,C   4,C   3,C   8)      3.2275         0.024820   
     74. D(O   6,C   5,C   2,O   7)      0.0104         0.023259   
     75. D(C   1,C   5,C   2,O   7)   -179.6704         0.023259   
     76. D(O   6,C   5,C   1,H  12)      0.0657         0.026491   
     77. D(O   6,C   5,C   1,C   4)   -179.7045         0.026491   
     78. D(C   1,C   5,C   2,C   0)      0.1002         0.023259   
     79. D(O   6,C   5,C   2,C   0)    179.7810         0.023259   
     80. D(C   2,C   5,C   1,H  12)    179.7156         0.026491   
     81. D(C   2,C   5,C   1,C   4)     -0.0545         0.026491   
     82. D(H  14,O   6,C   5,C   2)    179.9088         0.025483   
     83. D(H  14,O   6,C   5,C   1)     -0.4286         0.025483   
     84. D(H  15,O   7,C   2,C   5)      0.3422         0.026317   
     85. D(H  15,O   7,C   2,C   0)   -179.4283         0.026317   
     86. D(H  16,C   8,C   3,C   0)    157.8457         0.012268   
     87. D(C   9,C   8,C   3,C   4)     96.0687         0.012268   
     88. D(C   9,C   8,C   3,C   0)    -81.0161         0.012268   
     89. D(H  17,C   8,C   3,C   4)   -142.9541         0.012268   
     90. D(H  17,C   8,C   3,C   0)     39.9611         0.012268   
     91. D(H  16,C   8,C   3,C   4)    -25.0695         0.012268   
     92. D(H  19,C   9,C   8,H  16)    -62.6870         0.010063   
     93. D(H  19,C   9,C   8,C   3)    175.4665         0.010063   
     94. D(H  18,C   9,C   8,H  17)    -62.5127         0.010063   
     95. D(H  18,C   9,C   8,H  16)   -178.7143         0.010063   
     96. D(H  18,C   9,C   8,C   3)     59.4391         0.010063   
     97. D(N  10,C   9,C   8,H  17)    175.4113         0.010063   
     98. D(N  10,C   9,C   8,H  16)     59.2097         0.010063   
     99. D(H  19,C   9,C   8,H  17)     53.5146         0.010063   
    100. D(N  10,C   9,C   8,C   3)    -62.6369         0.010063   
    101. D(H  21,N  10,C   9,H  19)     64.3133         0.015053   
    102. D(H  21,N  10,C   9,H  18)    179.6832         0.015053   
    103. D(H  21,N  10,C   9,C   8)    -57.8525         0.015053   
    104. D(H  20,N  10,C   9,H  19)    178.3411         0.015053   
    105. D(H  20,N  10,C   9,H  18)    -66.2891         0.015053   
    106. D(H  20,N  10,C   9,C   8)     56.1752         0.015053   
    -----------------------------------------------------------------

Number of atoms                         .... 22
Number of degrees of freedom            .... 106

         *************************************************************
         *                GEOMETRY OPTIMIZATION CYCLE   1            *
         *************************************************************
---------------------------------
CARTESIAN COORDINATES (ANGSTROEM)
---------------------------------
  C     -0.113345   -1.031660   -0.462449
  C     -1.044124    1.567623   -0.059957
  C     -1.440303   -0.822153   -0.094562
  C      0.770404    0.046166   -0.638372
  C      0.288049    1.345075   -0.431019
  C     -1.910580    0.490678    0.109879
  O     -3.234219    0.599682    0.465954
  O     -2.281141   -1.893590    0.061642
  C      2.216102   -0.208106   -0.978393
  C      3.068237   -0.563692    0.260191
  N      3.168090    0.478947    1.288778
  H      0.227984   -2.058395   -0.616711
  H     -1.418530    2.582738    0.096112
  H      0.956371    2.197353   -0.568067
  H     -3.463658    1.539746    0.585535
  H     -3.161898   -1.547807    0.309388
  H      2.649320    0.685278   -1.456663
  H      2.293246   -1.037518   -1.700862
  H      2.653482   -1.470455    0.729876
  H      4.087475   -0.814587   -0.073831
  H      2.223870    0.741852    1.588871
  H      3.557947    1.326506    0.864798

----------------------------
CARTESIAN COORDINATES (A.U.)
----------------------------
  NO LB      ZA    FRAG     MASS         X           Y           Z
   0 C     6.0000    0    12.011   -0.214191   -1.949556   -0.873902
   1 C     6.0000    0    12.011   -1.973108    2.962378   -0.113303
   2 C     6.0000    0    12.011   -2.721779   -1.553645   -0.178696
   3 C     6.0000    0    12.011    1.455853    0.087242   -1.206348
   4 C     6.0000    0    12.011    0.544334    2.541824   -0.814507
   5 C     6.0000    0    12.011   -3.610472    0.927247    0.207641
   6 O     8.0000    0    15.999   -6.111788    1.133235    0.880525
   7 O     8.0000    0    15.999   -4.310732   -3.578367    0.116486
   8 C     6.0000    0    12.011    4.187827   -0.393263   -1.848895
   9 C     6.0000    0    12.011    5.798128   -1.065224    0.491690
  10 N     7.0000    0    14.007    5.986823    0.905079    2.435437
  11 H     1.0000    0     1.008    0.430827   -3.889803   -1.165415
  12 H     1.0000    0     1.008   -2.680634    4.880668    0.181626
  13 H     1.0000    0     1.008    1.807279    4.152396   -1.073492
  14 H     1.0000    0     1.008   -6.545365    2.909697    1.106500
  15 H     1.0000    0     1.008   -5.975122   -2.924932    0.584659
  16 H     1.0000    0     1.008    5.006489    1.294989   -2.752695
  17 H     1.0000    0     1.008    4.333606   -1.960626   -3.214163
  18 H     1.0000    0     1.008    5.014354   -2.778758    1.379266
  19 H     1.0000    0     1.008    7.724208   -1.539347   -0.139520
  20 H     1.0000    0     1.008    4.202505    1.401898    3.002531
  21 H     1.0000    0     1.008    6.723546    2.506733    1.634231

--------------------------------
INTERNAL COORDINATES (ANGSTROEM)
--------------------------------
 C      0   0   0     0.000000000000     0.00000000     0.00000000
 C      1   0   0     2.790093544399     0.00000000     0.00000000
 C      1   2   0     1.392857875092    60.26109480     0.00000000
 C      1   2   3     1.404874410380    60.86837115   179.88234576
 C      2   1   3     1.400677905986    59.76677880   180.04606109
 C      2   1   3     1.392623251737    60.31156993     0.05061837
 O      6   2   1     1.375024578871   124.69453333   180.30005268
 O      3   1   2     1.370906386023   119.79266538   179.72206689
 C      4   1   2     1.506755325196   120.15607102   177.23904738
 C      9   4   1     1.544883967948   112.77746345   278.98387531
 N     10   9   4     1.468011734252   115.83556390   297.36309252
 H      1   2   3     1.092925477270   178.68797386     5.15372919
 H      2   1   3     1.093159199953   179.45518933   337.98812136
 H      5   2   1     1.091702519898   119.43653126   179.57046768
 H      7   6   2     0.975018595521   109.55524471   359.57141205
 H      8   3   1     0.978098846328   107.75007904   180.57170057
 H      9   4   1     1.102068599658   109.77325745   157.84570541
 H      9   4   1     1.102650215705   109.99400719    39.96111984
 H     10   9   4     1.102199996648   108.87129452    59.43914399
 H     10   9   4     1.101528454981   108.64420835   175.46647005
 H     11  10   9     1.025049755333   108.94336529    56.17523780
 H     11  10   9     1.024745345860   108.86961463   302.14745865

---------------------------
INTERNAL COORDINATES (A.U.)
---------------------------
 C      0   0   0     0.000000000000     0.00000000     0.00000000
 C      1   0   0     5.272512686936     0.00000000     0.00000000
 C      1   2   0     2.632119927399    60.26109480     0.00000000
 C      1   2   3     2.654827888173    60.86837115   179.88234576
 C      2   1   3     2.646897644149    59.76677880   180.04606109
 C      2   1   3     2.631676553514    60.31156993     0.05061837
 O      6   2   1     2.598419881477   124.69453333   180.30005268
 O      3   1   2     2.590637624828   119.79266538   179.72206689
 C      4   1   2     2.847354915448   120.15607102   177.23904738
 C      9   4   1     2.919407608108   112.77746345   278.98387531
 N     10   9   4     2.774140139120   115.83556390   297.36309252
 H      1   2   3     2.065329836825   178.68797386     5.15372919
 H      2   1   3     2.065771508687   179.45518933   337.98812136
 H      5   2   1     2.063018782318   119.43653126   179.57046768
 H      7   6   2     1.842518121016   109.55524471   359.57141205
 H      8   3   1     1.848338951464   107.75007904   180.57170057
 H      9   4   1     2.082607834148   109.77325745   157.84570541
 H      9   4   1     2.083706929192   109.99400719    39.96111984
 H     10   9   4     2.082856138474   108.87129452    59.43914399
 H     10   9   4     2.081587108635   108.64420835   175.46647005
 H     11  10   9     1.937063311222   108.94336529    56.17523780
 H     11  10   9     1.936488060685   108.86961463   302.14745865

---------------------
BASIS SET INFORMATION
---------------------
There are 4 groups of distinct atoms

 Group   1 Type C   : 11s6p2d1f contracted to 5s3p2d1f pattern {62111/411/11/1}
 Group   2 Type O   : 11s6p2d1f contracted to 5s3p2d1f pattern {62111/411/11/1}
 Group   3 Type N   : 11s6p2d1f contracted to 5s3p2d1f pattern {62111/411/11/1}
 Group   4 Type H   : 5s1p contracted to 3s1p pattern {311/1}

Atom   0C    basis set group =>   1
Atom   1C    basis set group =>   1
Atom   2C    basis set group =>   1
Atom   3C    basis set group =>   1
Atom   4C    basis set group =>   1
Atom   5C    basis set group =>   1
Atom   6O    basis set group =>   2
Atom   7O    basis set group =>   2
Atom   8C    basis set group =>   1
Atom   9C    basis set group =>   1
Atom  10N    basis set group =>   3
Atom  11H    basis set group =>   4
Atom  12H    basis set group =>   4
Atom  13H    basis set group =>   4
Atom  14H    basis set group =>   4
Atom  15H    basis set group =>   4
Atom  16H    basis set group =>   4
Atom  17H    basis set group =>   4
Atom  18H    basis set group =>   4
Atom  19H    basis set group =>   4
Atom  20H    basis set group =>   4
Atom  21H    basis set group =>   4
---------------------------------
AUXILIARY/J BASIS SET INFORMATION
---------------------------------
There are 4 groups of distinct atoms

 Group   1 Type C   : 12s5p4d2f1g contracted to 6s4p3d1f1g pattern {711111/2111/211/2/1}
 Group   2 Type O   : 12s5p4d2f1g contracted to 6s4p3d1f1g pattern {711111/2111/211/2/1}
 Group   3 Type N   : 12s5p4d2f1g contracted to 6s4p3d1f1g pattern {711111/2111/211/2/1}
 Group   4 Type H   : 5s2p1d contracted to 3s1p1d pattern {311/2/1}

Atom   0C    basis set group =>   1
Atom   1C    basis set group =>   1
Atom   2C    basis set group =>   1
Atom   3C    basis set group =>   1
Atom   4C    basis set group =>   1
Atom   5C    basis set group =>   1
Atom   6O    basis set group =>   2
Atom   7O    basis set group =>   2
Atom   8C    basis set group =>   1
Atom   9C    basis set group =>   1
Atom  10N    basis set group =>   3
Atom  11H    basis set group =>   4
Atom  12H    basis set group =>   4
Atom  13H    basis set group =>   4
Atom  14H    basis set group =>   4
Atom  15H    basis set group =>   4
Atom  16H    basis set group =>   4
Atom  17H    basis set group =>   4
Atom  18H    basis set group =>   4
Atom  19H    basis set group =>   4
Atom  20H    basis set group =>   4
Atom  21H    basis set group =>   4
No protocol specified


           ************************************************************
           *        Program running with 16 parallel MPI-processes    *
           *              working on a common directory               *
           ************************************************************
------------------------------------------------------------------------------
                           ORCA GTO INTEGRAL CALCULATION
                           -- RI-GTO INTEGRALS CHOSEN --
------------------------------------------------------------------------------
------------------------------------------------------------------------------
                   ___                                                        
                  /   \      - P O W E R E D   B Y -                         
                 /     \                                                     
                 |  |  |   _    _      __       _____    __    __             
                 |  |  |  | |  | |    /  \     |  _  \  |  |  /  |          
                  \  \/   | |  | |   /    \    | | | |  |  | /  /          
                 / \  \   | |__| |  /  /\  \   | |_| |  |  |/  /          
                |  |  |   |  __  | /  /__\  \  |    /   |      \           
                |  |  |   | |  | | |   __   |  |    \   |  |\   \          
                \     /   | |  | | |  |  |  |  | |\  \  |  | \   \       
                 \___/    |_|  |_| |__|  |__|  |_| \__\ |__|  \__/        
                                                                              
                      - O R C A' S   B I G   F R I E N D -                    
                                      &                                       
                       - I N T E G R A L  F E E D E R -                       
                                                                              
 v1 FN, 2020, v2 2021                                                         
------------------------------------------------------------------------------


Reading SHARK input file neutral.SHARKINP.tmp ... ok
----------------------
SHARK INTEGRAL PACKAGE
----------------------

Number of atoms                             ...     22
Number of basis functions                   ...    407
Number of shells                            ...    165
Maximum angular momentum                    ...      3
Integral batch strategy                     ... SHARK/LIBINT Hybrid
RI-J (if used) integral strategy            ... SPLIT-RIJ (Revised 2003 algorithm where possible)
Printlevel                                  ...      1
Contraction scheme used                     ... SEGMENTED contraction
Coulomb Range Separation                    ... NOT USED
Exchange Range Separation                   ... NOT USED
Finite Nucleus Model                        ... NOT USED
Auxiliary Coulomb fitting basis             ... AVAILABLE
   # of basis functions in Aux-J            ...    660
   # of shells in Aux-J                     ...    220
   Maximum angular momentum in Aux-J        ...      4
Auxiliary J/K fitting basis                 ... NOT available
Auxiliary Correlation fitting basis         ... NOT available
Auxiliary 'external' fitting basis          ... NOT available
Integral threshold                          ...     2.500000e-11
Primitive cut-off                           ...     2.500000e-12
Primitive pair pre-selection threshold      ...     2.500000e-12

Calculating pre-screening integrals         ... done (  0.1 sec) Dimension = 165
Organizing shell pair data                  ... done (  0.3 sec)
Shell pair information
Total number of shell pairs                 ...     13695
Shell pairs after pre-screening             ...     11668
Total number of primitive shell pairs       ...     41316
Primitive shell pairs kept                  ...     25444
          la=0 lb=0:   3214 shell pairs
          la=1 lb=0:   3347 shell pairs
          la=1 lb=1:    894 shell pairs
          la=2 lb=0:   1640 shell pairs
          la=2 lb=1:    862 shell pairs
          la=2 lb=2:    221 shell pairs
          la=3 lb=0:    796 shell pairs
          la=3 lb=1:    426 shell pairs
          la=3 lb=2:    210 shell pairs
          la=3 lb=3:     58 shell pairs

Calculating one electron integrals          ... done (  0.0 sec)
Calculating RI/J V-Matrix + Cholesky decomp.... done (  0.0 sec)
Calculating Nuclear repulsion               ... done (  0.0 sec) ENN=    600.918520844484 Eh

SHARK setup successfully completed in   0.8 seconds

Maximum memory used throughout the entire GTOINT-calculation: 24.5 MB
No protocol specified


           ************************************************************
           *        Program running with 16 parallel MPI-processes    *
           *              working on a common directory               *
           ************************************************************
-------------------------------------------------------------------------------
                                 ORCA SCF
-------------------------------------------------------------------------------

------------
SCF SETTINGS
------------
Hamiltonian:
 Density Functional     Method          .... DFT(GTOs)
 Exchange Functional    Exchange        .... PBE
   PBE kappa parameter   XKappa         ....  0.804000
   PBE mue parameter    XMuePBE         ....  0.219520
 Correlation Functional Correlation     .... PBE
   PBE beta parameter  CBetaPBE         ....  0.066725
 LDA part of GGA corr.  LDAOpt          .... PW91-LDA
 Gradients option       PostSCFGGA      .... off
   Density functional embedding theory  .... OFF
   NL short-range parameter             ....  6.400000
 RI-approximation to the Coulomb term is turned on
   Number of AuxJ basis functions       .... 660


General Settings:
 Integral files         IntName         .... neutral
 Hartree-Fock type      HFTyp           .... RHF
 Total Charge           Charge          ....    0
 Multiplicity           Mult            ....    1
 Number of Electrons    NEL             ....   82
 Basis Dimension        Dim             ....  407
 Nuclear Repulsion      ENuc            ....    600.9185208445 Eh

Convergence Acceleration:
 DIIS                   CNVDIIS         .... on
   Start iteration      DIISMaxIt       ....    12
   Startup error        DIISStart       ....  0.200000
   # of expansion vecs  DIISMaxEq       ....     5
   Bias factor          DIISBfac        ....   1.050
   Max. coefficient     DIISMaxC        ....  10.000
 Trust-Rad. Augm. Hess. CNVTRAH         .... auto
   Auto Start mean grad. ratio tolernc. ....  1.125000
   Auto Start start iteration           ....    20
   Auto Start num. interpolation iter.  ....    10
   Max. Number of Micro iterations      ....    16
   Max. Number of Macro iterations      .... Maxiter - #DIIS iter
   Number of Davidson start vectors     ....     2
   Converg. threshold I  (grad. norm)   ....   1.000e-05
   Converg. threshold II (energy diff.) ....   1.000e-08
   Grad. Scal. Fac. for Micro threshold ....   0.100
   Minimum threshold for Micro iter.    ....   0.010
   NR start threshold (gradient norm)   ....   0.001
   Initial trust radius                 ....   0.400
   Minimum AH scaling param. (alpha)    ....   1.000
   Maximum AH scaling param. (alpha)    .... 1000.000
   Orbital update algorithm             .... Taylor
   White noise on init. David. guess    .... on
   Maximum white noise                  ....   0.010
   Quad. conv. algorithm                .... NR
 SOSCF                  CNVSOSCF        .... on
   Start iteration      SOSCFMaxIt      ....   150
   Startup grad/error   SOSCFStart      ....  0.003300
 Level Shifting         CNVShift        .... on
   Level shift para.    LevelShift      ....    0.2500
   Turn off err/grad.   ShiftErr        ....    0.0010
 Zerner damping         CNVZerner       .... off
 Static damping         CNVDamp         .... on
   Fraction old density DampFac         ....    0.7000
   Max. Damping (<1)    DampMax         ....    0.9800
   Min. Damping (>=0)   DampMin         ....    0.0000
   Turn off err/grad.   DampErr         ....    0.1000
 Fernandez-Rico         CNVRico         .... off

SCF Procedure:
 Maximum # iterations   MaxIter         ....   125
 SCF integral mode      SCFMode         .... Direct
   Integral package                     .... SHARK and LIBINT hybrid scheme
 Reset frequency        DirectResetFreq ....    20
 Integral Threshold     Thresh          ....  2.500e-11 Eh
 Primitive CutOff       TCut            ....  2.500e-12 Eh

Convergence Tolerance:
 Convergence Check Mode ConvCheckMode   .... Total+1el-Energy
 Convergence forced     ConvForced      .... 0
 Energy Change          TolE            ....  1.000e-08 Eh
 1-El. energy change                    ....  1.000e-05 Eh
 Orbital Gradient       TolG            ....  1.000e-05
 Orbital Rotation angle TolX            ....  1.000e-05
 DIIS Error             TolErr          ....  5.000e-07


Diagonalization of the overlap matrix:
Smallest eigenvalue                        ... 9.148e-06
Time for diagonalization                   ...    0.035 sec
Threshold for overlap eigenvalues          ... 1.000e-08
Number of eigenvalues below threshold      ... 0
Time for construction of square roots      ...    0.027 sec
Total time needed                          ...    0.064 sec

Time for model grid setup =    0.103 sec

------------------------------
INITIAL GUESS: MODEL POTENTIAL
------------------------------
Loading Hartree-Fock densities                     ... done
Calculating cut-offs                               ... done
Initializing the effective Hamiltonian             ... done
Setting up the integral package (SHARK)            ... done
Starting the Coulomb interaction                   ... done (   0.1 sec)
Reading the grid                                   ... done
Mapping shells                                     ... done
Starting the XC term evaluation                    ... done (   0.1 sec)
  promolecular density results
     # of electrons  =     81.991203587
     EX              =    -67.012429590
     EC              =     -2.733722233
     EX+EC           =    -69.746151824
Transforming the Hamiltonian                       ... done (   0.0 sec)
Diagonalizing the Hamiltonian                      ... done (   0.0 sec)
Back transforming the eigenvectors                 ... done (   0.0 sec)
Now organizing SCF variables                       ... done
                      ------------------
                      INITIAL GUESS DONE (   0.4 sec)
                      ------------------
-------------------
DFT GRID GENERATION
-------------------

General Integration Accuracy     IntAcc      ... 4.388
Radial Grid Type                 RadialGrid  ... OptM3 with GC (2021)
Angular Grid (max. ang.)         AngularGrid ... 4 (Lebedev-302)
Angular grid pruning method      GridPruning ... 4 (adaptive)
Weight generation scheme         WeightScheme... Becke
Basis function cutoff            BFCut       ... 1.0000e-11
Integration weight cutoff        WCut        ... 1.0000e-14
Angular grids for H and He will be reduced by one unit
Partially contracted basis set               ... off
Rotationally invariant grid construction     ... off

Total number of grid points                  ...   101348
Total number of batches                      ...     1594
Average number of points per batch           ...       63
Average number of grid points per atom       ...     4607
Time for grid setup =    0.723 sec


--------------------
CPCM SOLVATION MODEL
--------------------
CPCM parameters:
  Epsilon                                         ...      80.4000
  Refrac                                          ...       1.3300
  Rsolv                                           ...       1.3000
  Surface type                                    ... GAUSSIAN VDW
  Epsilon function type                           ...         CPCM
Radii:
 Radius for C  used is    3.8550 Bohr (=   2.0400 Ang.)
 Radius for O  used is    3.4469 Bohr (=   1.8240 Ang.)
 Radius for N  used is    3.5149 Bohr (=   1.8600 Ang.)
 Radius for H  used is    2.4944 Bohr (=   1.3200 Ang.)
Calculating surface                               ...        done! (  0.0s)
GEPOL surface points                              ...         1243
GEPOL Volume                                      ...    1283.8804
GEPOL Surface-area                                ...     712.9975
Calculating surface distance matrix               ...        done! (  0.0s)
Performing Cholesky decomposition & store         ...        done! (  0.1s)
Overall time for CPCM initialization              ...                 0.2s
--------------
SCF ITERATIONS
--------------
ITER       Energy         Delta-E        Max-DP      RMS-DP      [F,P]     Damp
               ***  Starting incremental Fock matrix formation  ***
  0   -515.9647741741   0.000000000000 0.23543658  0.00218320  0.2533299 0.7000
  1   -516.1128204962  -0.148046322054 0.24685022  0.00222713  0.0991197 0.7000
                               ***Turning on DIIS***
  2   -516.1624384923  -0.049617996152 0.32292535  0.00356242  0.0238029 0.0000
  3   -516.2401026521  -0.077664159759 0.21716436  0.00171492  0.0618953 0.0000
  4   -516.2614294987  -0.021326846634 0.06570662  0.00062423  0.0125326 0.0000
  5   -516.2629107871  -0.001481288382 0.03255121  0.00031530  0.0059430 0.0000
                      *** Initiating the SOSCF procedure ***
                           *** Shutting down DIIS ***
                      *** Re-Reading the Fockian *** 
                      *** Removing any level shift *** 
ITER      Energy       Delta-E        Grad      Rot      Max-DP    RMS-DP
  6   -516.26304462  -0.0001338348  0.000461  0.000461  0.012693  0.000112
               *** Restarting incremental Fock matrix formation ***
  7   -516.26305263  -0.0000080077  0.000170  0.000868  0.008621  0.000094
  8   -516.26304779   0.0000048432  0.000532  0.001221  0.002349  0.000025
  9   -516.26305525  -0.0000074648  0.000083  0.000456  0.000573  0.000008
 10   -516.26305494   0.0000003115  0.000095  0.000191  0.000616  0.000005
 11   -516.26305538  -0.0000004450  0.000009  0.000026  0.000457  0.000005
 12   -516.26305538   0.0000000052  0.000016  0.000018  0.000063  0.000001
                  ***Gradient check signals convergence***
              ***Rediagonalizing the Fockian in SOSCF/NRSCF***

               *****************************************************
               *                     SUCCESS                       *
               *           SCF CONVERGED AFTER  13 CYCLES          *
               *****************************************************


----------------
TOTAL SCF ENERGY
----------------

Total Energy       :         -516.26305539 Eh          -14048.23194 eV

Components:
Nuclear Repulsion  :          600.91852084 Eh           16351.82426 eV
Electronic Energy  :        -1117.18157623 Eh          -30400.05620 eV
One Electron Energy:        -1893.88941748 Eh          -51535.35106 eV
Two Electron Energy:          776.70784125 Eh           21135.29486 eV
CPCM Dielectric    :           -0.02075281 Eh              -0.56471 eV

Virial components:
Potential Energy   :        -1030.16342348 Eh          -28032.17188 eV
Kinetic Energy     :          513.90036809 Eh           13983.93995 eV
Virial Ratio       :            2.00459756


DFT components:
N(Alpha)           :       41.000148933028 electrons
N(Beta)            :       41.000148933028 electrons
N(Total)           :       82.000297866055 electrons
E(X)               :      -68.293294729809 Eh       
E(C)               :       -2.741259560895 Eh       
E(XC)              :      -71.034554290703 Eh       
DFET-embed. en.    :        0.000000000000 Eh       
CPCM Solvation Model Properties:
Surface-charge          :           -0.02838714
Charge-correction       :            0.00011224 Eh               0.00305 eV
Free-energy (cav+disp)  :  This term is not implemented in the current solvation scheme

---------------
SCF CONVERGENCE
---------------

  Last Energy change         ...   -1.0220e-08  Tolerance :   1.0000e-08
  Last MAX-Density change    ...    4.9924e-04  Tolerance :   1.0000e-07
  Last RMS-Density change    ...    5.5145e-06  Tolerance :   5.0000e-09
  Last Orbital Gradient      ...    1.8381e-06  Tolerance :   1.0000e-05
  Last Orbital Rotation      ...    1.1178e-05  Tolerance :   1.0000e-05

             **** THE GBW FILE WAS UPDATED (neutral.gbw) ****
             **** DENSITY neutral.scfp WAS UPDATED ****
             **** ENERGY FILE WAS UPDATED (neutral.en.tmp) ****
             **** THE GBW FILE WAS UPDATED (neutral.gbw) ****
             **** DENSITY neutral.scfp WAS UPDATED ****
----------------
ORBITAL ENERGIES
----------------

  NO   OCC          E(Eh)            E(eV) 
   0   2.0000     -18.787205      -511.2258 
   1   2.0000     -18.781366      -511.0670 
   2   2.0000     -13.961206      -379.9037 
   3   2.0000      -9.943022      -270.5634 
   4   2.0000      -9.942324      -270.5444 
   5   2.0000      -9.899703      -269.3846 
   6   2.0000      -9.888616      -269.0829 
   7   2.0000      -9.885943      -269.0102 
   8   2.0000      -9.880888      -268.8726 
   9   2.0000      -9.879341      -268.8305 
  10   2.0000      -9.876889      -268.7638 
  11   2.0000      -0.986155       -26.8346 
  12   2.0000      -0.960537       -26.1375 
  13   2.0000      -0.801171       -21.8010 
  14   2.0000      -0.773095       -21.0370 
  15   2.0000      -0.695820       -18.9342 
  16   2.0000      -0.671765       -18.2796 
  17   2.0000      -0.634710       -17.2713 
  18   2.0000      -0.577548       -15.7159 
  19   2.0000      -0.550087       -14.9686 
  20   2.0000      -0.536683       -14.6039 
  21   2.0000      -0.495563       -13.4850 
  22   2.0000      -0.469880       -12.7861 
  23   2.0000      -0.442795       -12.0491 
  24   2.0000      -0.426090       -11.5945 
  25   2.0000      -0.406186       -11.0529 
  26   2.0000      -0.388820       -10.5803 
  27   2.0000      -0.387014       -10.5312 
  28   2.0000      -0.376845       -10.2545 
  29   2.0000      -0.368363       -10.0237 
  30   2.0000      -0.353586        -9.6216 
  31   2.0000      -0.349458        -9.5092 
  32   2.0000      -0.326893        -8.8952 
  33   2.0000      -0.324514        -8.8305 
  34   2.0000      -0.307800        -8.3757 
  35   2.0000      -0.295533        -8.0419 
  36   2.0000      -0.289474        -7.8770 
  37   2.0000      -0.284732        -7.7480 
  38   2.0000      -0.218149        -5.9361 
  39   2.0000      -0.201721        -5.4891 
  40   2.0000      -0.185991        -5.0611 
  41   0.0000      -0.037729        -1.0267 
  42   0.0000      -0.022540        -0.6133 
  43   0.0000       0.010554         0.2872 
  44   0.0000       0.023513         0.6398 
  45   0.0000       0.043378         1.1804 
  46   0.0000       0.049305         1.3417 
  47   0.0000       0.058481         1.5913 
  48   0.0000       0.065321         1.7775 
  49   0.0000       0.080833         2.1996 
  50   0.0000       0.093429         2.5423 
  51   0.0000       0.099389         2.7045 
  52   0.0000       0.114296         3.1101 
  53   0.0000       0.115219         3.1353 
  54   0.0000       0.119475         3.2511 
  55   0.0000       0.131381         3.5751 
  56   0.0000       0.141378         3.8471 
  57   0.0000       0.151107         4.1118 
  58   0.0000       0.159990         4.3536 
  59   0.0000       0.172235         4.6868 
  60   0.0000       0.184486         5.0201 
  61   0.0000       0.195379         5.3165 
  62   0.0000       0.206520         5.6197 
  63   0.0000       0.213490         5.8093 
  64   0.0000       0.227723         6.1967 
  65   0.0000       0.233734         6.3602 
  66   0.0000       0.234256         6.3744 
  67   0.0000       0.243121         6.6157 
  68   0.0000       0.257840         7.0162 
  69   0.0000       0.265818         7.2333 
  70   0.0000       0.268885         7.3167 
  71   0.0000       0.275116         7.4863 
  72   0.0000       0.282715         7.6931 
  73   0.0000       0.283921         7.7259 
  74   0.0000       0.304224         8.2783 
  75   0.0000       0.307236         8.3603 
  76   0.0000       0.311489         8.4760 
  77   0.0000       0.318863         8.6767 
  78   0.0000       0.320898         8.7321 
  79   0.0000       0.332598         9.0504 
  80   0.0000       0.337457         9.1827 
  81   0.0000       0.340882         9.2759 
  82   0.0000       0.347613         9.4590 
  83   0.0000       0.368865        10.0373 
  84   0.0000       0.386442        10.5156 
  85   0.0000       0.387414        10.5421 
  86   0.0000       0.401756        10.9323 
  87   0.0000       0.403593        10.9823 
  88   0.0000       0.405689        11.0394 
  89   0.0000       0.409523        11.1437 
  90   0.0000       0.419994        11.4286 
  91   0.0000       0.424981        11.5643 
  92   0.0000       0.437173        11.8961 
  93   0.0000       0.444736        12.1019 
  94   0.0000       0.453101        12.3295 
  95   0.0000       0.463762        12.6196 
  96   0.0000       0.469201        12.7676 
  97   0.0000       0.481664        13.1068 
  98   0.0000       0.492905        13.4126 
  99   0.0000       0.499169        13.5831 
 100   0.0000       0.509888        13.8747 
 101   0.0000       0.514788        14.0081 
 102   0.0000       0.522664        14.2224 
 103   0.0000       0.541186        14.7264 
 104   0.0000       0.547363        14.8945 
 105   0.0000       0.559809        15.2332 
 106   0.0000       0.567770        15.4498 
 107   0.0000       0.569844        15.5062 
 108   0.0000       0.585623        15.9356 
 109   0.0000       0.599731        16.3195 
 110   0.0000       0.608378        16.5548 
 111   0.0000       0.624791        17.0014 
 112   0.0000       0.639085        17.3904 
 113   0.0000       0.647622        17.6227 
 114   0.0000       0.670895        18.2560 
 115   0.0000       0.681676        18.5493 
 116   0.0000       0.693221        18.8635 
 117   0.0000       0.701261        19.0823 
 118   0.0000       0.718795        19.5594 
 119   0.0000       0.731213        19.8973 
 120   0.0000       0.745176        20.2773 
 121   0.0000       0.772160        21.0115 
 122   0.0000       0.775120        21.0921 
 123   0.0000       0.785379        21.3712 
 124   0.0000       0.788415        21.4539 
 125   0.0000       0.808211        21.9925 
 126   0.0000       0.817389        22.2423 
 127   0.0000       0.837632        22.7931 
 128   0.0000       0.842838        22.9348 
 129   0.0000       0.849915        23.1274 
 130   0.0000       0.861305        23.4373 
 131   0.0000       0.883437        24.0395 
 132   0.0000       0.899489        24.4763 
 133   0.0000       0.933661        25.4062 
 134   0.0000       0.960916        26.1478 
 135   0.0000       0.974790        26.5254 
 136   0.0000       0.987871        26.8813 
 137   0.0000       1.014343        27.6017 
 138   0.0000       1.018464        27.7138 
 139   0.0000       1.041795        28.3487 
 140   0.0000       1.047341        28.4996 
 141   0.0000       1.070556        29.1313 
 142   0.0000       1.077018        29.3071 
 143   0.0000       1.088574        29.6216 
 144   0.0000       1.103656        30.0320 
 145   0.0000       1.130924        30.7740 
 146   0.0000       1.142939        31.1009 
 147   0.0000       1.149682        31.2844 
 148   0.0000       1.181349        32.1462 
 149   0.0000       1.188440        32.3391 
 150   0.0000       1.205887        32.8139 
 151   0.0000       1.224192        33.3120 
 152   0.0000       1.238315        33.6963 
 153   0.0000       1.254358        34.1328 
 154   0.0000       1.258411        34.2431 
 155   0.0000       1.273480        34.6532 
 156   0.0000       1.286407        35.0049 
 157   0.0000       1.293423        35.1958 
 158   0.0000       1.309523        35.6339 
 159   0.0000       1.316173        35.8149 
 160   0.0000       1.333623        36.2897 
 161   0.0000       1.362199        37.0673 
 162   0.0000       1.373229        37.3675 
 163   0.0000       1.379092        37.5270 
 164   0.0000       1.402805        38.1723 
 165   0.0000       1.415416        38.5154 
 166   0.0000       1.452262        39.5181 
 167   0.0000       1.461404        39.7668 
 168   0.0000       1.471973        40.0544 
 169   0.0000       1.493695        40.6455 
 170   0.0000       1.511372        41.1265 
 171   0.0000       1.525281        41.5050 
 172   0.0000       1.531161        41.6650 
 173   0.0000       1.562316        42.5128 
 174   0.0000       1.565272        42.5932 
 175   0.0000       1.582190        43.0536 
 176   0.0000       1.599626        43.5280 
 177   0.0000       1.609339        43.7923 
 178   0.0000       1.623815        44.1863 
 179   0.0000       1.631509        44.3956 
 180   0.0000       1.638381        44.5826 
 181   0.0000       1.645685        44.7814 
 182   0.0000       1.671393        45.4809 
 183   0.0000       1.681515        45.7563 
 184   0.0000       1.685788        45.8726 
 185   0.0000       1.698152        46.2091 
 186   0.0000       1.731048        47.1042 
 187   0.0000       1.739677        47.3390 
 188   0.0000       1.775655        48.3180 
 189   0.0000       1.779554        48.4241 
 190   0.0000       1.794067        48.8190 
 191   0.0000       1.804750        49.1097 
 192   0.0000       1.809588        49.2414 
 193   0.0000       1.829380        49.7800 
 194   0.0000       1.842934        50.1488 
 195   0.0000       1.858413        50.5700 
 196   0.0000       1.876468        51.0613 
 197   0.0000       1.888709        51.3944 
 198   0.0000       1.914277        52.0901 
 199   0.0000       1.921680        52.2916 
 200   0.0000       1.932703        52.5915 
 201   0.0000       1.944901        52.9235 
 202   0.0000       1.964108        53.4461 
 203   0.0000       1.976324        53.7785 
 204   0.0000       1.995160        54.2911 
 205   0.0000       2.009502        54.6813 
 206   0.0000       2.027896        55.1819 
 207   0.0000       2.051913        55.8354 
 208   0.0000       2.056296        55.9547 
 209   0.0000       2.076139        56.4946 
 210   0.0000       2.088349        56.8269 
 211   0.0000       2.096070        57.0370 
 212   0.0000       2.108792        57.3831 
 213   0.0000       2.110162        57.4204 
 214   0.0000       2.148307        58.4584 
 215   0.0000       2.171269        59.0832 
 216   0.0000       2.178994        59.2934 
 217   0.0000       2.201709        59.9115 
 218   0.0000       2.210739        60.1573 
 219   0.0000       2.228924        60.6521 
 220   0.0000       2.244323        61.0711 
 221   0.0000       2.268533        61.7299 
 222   0.0000       2.323939        63.2376 
 223   0.0000       2.330898        63.4270 
 224   0.0000       2.340008        63.6749 
 225   0.0000       2.360551        64.2339 
 226   0.0000       2.378004        64.7088 
 227   0.0000       2.386774        64.9474 
 228   0.0000       2.409018        65.5527 
 229   0.0000       2.412432        65.6456 
 230   0.0000       2.430020        66.1242 
 231   0.0000       2.445287        66.5396 
 232   0.0000       2.461110        66.9702 
 233   0.0000       2.469863        67.2084 
 234   0.0000       2.507451        68.2312 
 235   0.0000       2.536141        69.0119 
 236   0.0000       2.549506        69.3756 
 237   0.0000       2.555626        69.5421 
 238   0.0000       2.560473        69.6740 
 239   0.0000       2.577126        70.1272 
 240   0.0000       2.582438        70.2717 
 241   0.0000       2.594069        70.5882 
 242   0.0000       2.600649        70.7673 
 243   0.0000       2.613867        71.1269 
 244   0.0000       2.642832        71.9151 
 245   0.0000       2.657057        72.3022 
 246   0.0000       2.660596        72.3985 
 247   0.0000       2.673374        72.7462 
 248   0.0000       2.701242        73.5045 
 249   0.0000       2.705841        73.6297 
 250   0.0000       2.722947        74.0952 
 251   0.0000       2.742463        74.6262 
 252   0.0000       2.754519        74.9543 
 253   0.0000       2.762863        75.1813 
 254   0.0000       2.775977        75.5382 
 255   0.0000       2.782138        75.7058 
 256   0.0000       2.790040        75.9208 
 257   0.0000       2.801395        76.2298 
 258   0.0000       2.825518        76.8862 
 259   0.0000       2.839816        77.2753 
 260   0.0000       2.855610        77.7051 
 261   0.0000       2.861271        77.8591 
 262   0.0000       2.876200        78.2654 
 263   0.0000       2.907446        79.1156 
 264   0.0000       2.926741        79.6407 
 265   0.0000       2.939815        79.9964 
 266   0.0000       2.946081        80.1669 
 267   0.0000       2.958419        80.5027 
 268   0.0000       2.969778        80.8118 
 269   0.0000       2.978541        81.0502 
 270   0.0000       3.004803        81.7648 
 271   0.0000       3.008504        81.8656 
 272   0.0000       3.021335        82.2147 
 273   0.0000       3.055078        83.1329 
 274   0.0000       3.077531        83.7439 
 275   0.0000       3.085839        83.9699 
 276   0.0000       3.091521        84.1246 
 277   0.0000       3.105212        84.4971 
 278   0.0000       3.122519        84.9681 
 279   0.0000       3.125061        85.0372 
 280   0.0000       3.145200        85.5852 
 281   0.0000       3.149633        85.7059 
 282   0.0000       3.167330        86.1874 
 283   0.0000       3.183218        86.6198 
 284   0.0000       3.190813        86.8264 
 285   0.0000       3.211126        87.3792 
 286   0.0000       3.214632        87.4746 
 287   0.0000       3.234242        88.0082 
 288   0.0000       3.253291        88.5266 
 289   0.0000       3.278161        89.2033 
 290   0.0000       3.282903        89.3323 
 291   0.0000       3.289831        89.5209 
 292   0.0000       3.306135        89.9645 
 293   0.0000       3.312474        90.1370 
 294   0.0000       3.325079        90.4800 
 295   0.0000       3.345312        91.0306 
 296   0.0000       3.359265        91.4103 
 297   0.0000       3.371561        91.7448 
 298   0.0000       3.384023        92.0839 
 299   0.0000       3.398113        92.4673 
 300   0.0000       3.414616        92.9164 
 301   0.0000       3.427028        93.2542 
 302   0.0000       3.435932        93.4965 
 303   0.0000       3.444389        93.7266 
 304   0.0000       3.461565        94.1940 
 305   0.0000       3.480408        94.7067 
 306   0.0000       3.527921        95.9996 
 307   0.0000       3.572371        97.2092 
 308   0.0000       3.585497        97.5663 
 309   0.0000       3.613082        98.3170 
 310   0.0000       3.629859        98.7735 
 311   0.0000       3.645772        99.2065 
 312   0.0000       3.677681       100.0748 
 313   0.0000       3.698343       100.6370 
 314   0.0000       3.749913       102.0403 
 315   0.0000       3.756352       102.2155 
 316   0.0000       3.767892       102.5296 
 317   0.0000       3.803835       103.5076 
 318   0.0000       3.815091       103.8139 
 319   0.0000       3.828056       104.1667 
 320   0.0000       3.845687       104.6465 
 321   0.0000       3.858115       104.9846 
 322   0.0000       3.890573       105.8679 
 323   0.0000       3.909386       106.3798 
 324   0.0000       3.944559       107.3369 
 325   0.0000       3.953225       107.5727 
 326   0.0000       4.013355       109.2089 
 327   0.0000       4.017880       109.3321 
 328   0.0000       4.037825       109.8748 
 329   0.0000       4.063247       110.5666 
 330   0.0000       4.085803       111.1803 
 331   0.0000       4.102698       111.6401 
 332   0.0000       4.112306       111.9015 
 333   0.0000       4.131191       112.4154 
 334   0.0000       4.147030       112.8464 
 335   0.0000       4.192065       114.0719 
 336   0.0000       4.204472       114.4095 
 337   0.0000       4.233775       115.2069 
 338   0.0000       4.247623       115.5837 
 339   0.0000       4.259804       115.9151 
 340   0.0000       4.296762       116.9209 
 341   0.0000       4.324940       117.6876 
 342   0.0000       4.342162       118.1562 
 343   0.0000       4.361109       118.6718 
 344   0.0000       4.410061       120.0039 
 345   0.0000       4.454465       121.2121 
 346   0.0000       4.489012       122.1522 
 347   0.0000       4.535695       123.4225 
 348   0.0000       4.568407       124.3127 
 349   0.0000       4.601394       125.2103 
 350   0.0000       4.640179       126.2657 
 351   0.0000       4.680241       127.3558 
 352   0.0000       4.717012       128.3564 
 353   0.0000       4.764884       129.6591 
 354   0.0000       4.780831       130.0930 
 355   0.0000       4.786512       130.2476 
 356   0.0000       4.796575       130.5214 
 357   0.0000       4.836883       131.6183 
 358   0.0000       4.876418       132.6941 
 359   0.0000       4.899429       133.3203 
 360   0.0000       4.963509       135.0639 
 361   0.0000       4.980362       135.5225 
 362   0.0000       5.002315       136.1199 
 363   0.0000       5.023406       136.6938 
 364   0.0000       5.097234       138.7028 
 365   0.0000       5.114306       139.1673 
 366   0.0000       5.156924       140.3270 
 367   0.0000       5.169244       140.6623 
 368   0.0000       5.199719       141.4916 
 369   0.0000       5.238768       142.5541 
 370   0.0000       5.306573       144.3992 
 371   0.0000       5.326157       144.9321 
 372   0.0000       5.382813       146.4738 
 373   0.0000       5.386454       146.5729 
 374   0.0000       5.406837       147.1275 
 375   0.0000       5.471506       148.8873 
 376   0.0000       5.509560       149.9228 
 377   0.0000       5.546931       150.9397 
 378   0.0000       5.659578       154.0049 
 379   0.0000       5.732773       155.9967 
 380   0.0000       5.747250       156.3906 
 381   0.0000       5.905265       160.6904 
 382   0.0000       6.043017       164.4388 
 383   0.0000       6.153641       167.4491 
 384   0.0000       6.257688       170.2803 
 385   0.0000       6.259380       170.3264 
 386   0.0000       6.294737       171.2885 
 387   0.0000       6.401965       174.2063 
 388   0.0000       6.525149       177.5583 
 389   0.0000       6.621454       180.1789 
 390   0.0000       6.644283       180.8001 
 391   0.0000       6.697654       182.2524 
 392   0.0000       6.843236       186.2139 
 393   0.0000       6.866220       186.8394 
 394   0.0000       7.089737       192.9216 
 395   0.0000       7.226355       196.6391 
 396   0.0000      21.891819       595.7067 
 397   0.0000      22.146383       602.6337 
 398   0.0000      22.270565       606.0129 
 399   0.0000      22.430751       610.3718 
 400   0.0000      22.474878       611.5725 
 401   0.0000      22.581477       614.4732 
 402   0.0000      22.692994       617.5078 
 403   0.0000      23.103901       628.6891 
 404   0.0000      31.626606       860.6037 
 405   0.0000      43.442624      1182.1339 
 406   0.0000      43.661756      1188.0968 

                    ********************************
                    * MULLIKEN POPULATION ANALYSIS *
                    ********************************

-----------------------
MULLIKEN ATOMIC CHARGES
-----------------------
   0 C :   -0.327456
   1 C :   -0.201948
   2 C :    0.151789
   3 C :    0.209443
   4 C :   -0.315945
   5 C :    0.176616
   6 O :   -0.429779
   7 O :   -0.391700
   8 C :   -0.201942
   9 C :   -0.129111
  10 N :   -0.548246
  11 H :    0.113249
  12 H :    0.143143
  13 H :    0.120428
  14 H :    0.361204
  15 H :    0.349885
  16 H :    0.119653
  17 H :    0.103782
  18 H :    0.112822
  19 H :    0.115560
  20 H :    0.234552
  21 H :    0.234002
Sum of atomic charges:   -0.0000000

--------------------------------
MULLIKEN REDUCED ORBITAL CHARGES
--------------------------------
  0 C s       :     3.345132  s :     3.345132
      pz      :     1.034068  p :     2.897659
      px      :     0.952277
      py      :     0.911314
      dz2     :     0.006963  d :     0.077695
      dxz     :     0.019226
      dyz     :     0.007445
      dx2y2   :     0.025094
      dxy     :     0.018967
      f0      :     0.001074  f :     0.006970
      f+1     :     0.001073
      f-1     :     0.000571
      f+2     :     0.000595
      f-2     :     0.000882
      f+3     :     0.001025
      f-3     :     0.001750
  1 C s       :     3.225609  s :     3.225609
      pz      :     1.028520  p :     2.889727
      px      :     0.918309
      py      :     0.942898
      dz2     :     0.008384  d :     0.079842
      dxz     :     0.018389
      dyz     :     0.009419
      dx2y2   :     0.018373
      dxy     :     0.025277
      f0      :     0.001078  f :     0.006771
      f+1     :     0.001011
      f-1     :     0.000576
      f+2     :     0.000598
      f-2     :     0.000888
      f+3     :     0.001069
      f-3     :     0.001551
  2 C s       :     3.053121  s :     3.053121
      pz      :     0.978296  p :     2.617901
      px      :     0.825782
      py      :     0.813822
      dz2     :     0.011178  d :     0.162448
      dxz     :     0.032126
      dyz     :     0.032566
      dx2y2   :     0.052192
[...]
     52      -0.011621  -0.478140  -0.476576   0.265979   0.003645  -0.003992
     53       0.009495  -0.411504  -0.430792   0.243813   0.002639  -0.003583
     54      -0.009449   0.038340   0.292165   0.625026   0.009864  -0.013739
     55      -0.015249   0.000834  -0.007935  -0.009632   0.000106  -0.000105
     56      -0.033443   0.008681   0.044753   0.094081   0.001749  -0.001915
     57       0.011307   0.011079  -0.122332  -0.177877  -0.000788  -0.005176
     58      -0.005529  -0.037056   0.358538   0.521987   0.002858   0.015554
     59      -0.007775   0.014749  -0.160903  -0.236200  -0.001592  -0.006891
     60      -0.114901   0.008652  -0.006356   0.008666  -0.463192   0.065346
     61      -0.068066  -0.010625   0.007293  -0.012040   0.748876  -0.103421
     62      -0.017463   0.002817  -0.002225   0.002397  -0.115109   0.016008
     63       0.015901   0.000605  -0.001530   0.002005  -0.182833   0.014886
     64      -0.049363   0.000576  -0.003253   0.004386  -0.382768   0.037747
     65       0.004553   0.000352  -0.000586   0.000530  -0.038576   0.003211
                 60         61         62         63         64         65    
      0       0.017276  -0.001308  -0.001705  -0.000377   0.000089  -0.000014
      1       0.009312  -0.000738  -0.001179   0.000185  -0.000072   0.000007
      2       0.003848  -0.000295  -0.000374  -0.000089  -0.000003  -0.000017
      3       0.007638  -0.000389  -0.000654  -0.000105   0.000031  -0.000027
      4      -0.003010   0.000188   0.000752  -0.000526   0.000140  -0.000040
      5       0.001726  -0.000084  -0.000154  -0.000120   0.000018  -0.000025
      6      -0.036436   0.000023   0.005388   0.000088  -0.000057   0.000044
      7      -0.070207   0.000246   0.010847  -0.000626   0.000137  -0.000040
      8      -0.008229  -0.000043   0.001231  -0.000040  -0.000045   0.000004
      9      -0.002177  -0.000300   0.001619  -0.001145   0.000263  -0.000168
     10       0.001455  -0.000066   0.001439  -0.000802   0.000227  -0.000002
     11      -0.000541   0.000007   0.000431   0.000509  -0.000145   0.000050
     12      -0.000266   0.002586   0.000435   0.000038   0.000057   0.000032
     13      -0.000747  -0.008690  -0.000743  -0.000277  -0.000444  -0.000117
     14      -0.000643   0.002390   0.000485  -0.000770   0.000117   0.000219
     15       0.001314   0.075221   0.003997   0.003882  -0.001009  -0.000426
     16      -0.001266  -0.050292  -0.002723   0.001827   0.001375   0.001150
     17       0.000651   0.030886   0.001641   0.002397  -0.000505  -0.000340
     18      -0.000301  -0.002903   0.000572   0.057978  -0.051301   0.001687
     19      -0.000014   0.001020   0.000212   0.016391   0.036001   0.050648
     20      -0.000036  -0.000913   0.000035   0.008420   0.021982  -0.062660
     21      -0.000055  -0.003433   0.000072   0.055816   0.150901  -0.242803
     22      -0.000137  -0.001320   0.000357   0.047891   0.160243  -0.217945
     23       0.000302   0.004031  -0.000685  -0.156177  -0.506538   0.751177
     24       0.003919   0.030005  -0.009254  -0.955579   0.205293  -0.040539
     25       0.000899   0.000729  -0.002554  -0.145813   0.040451   0.004254
     26       0.000560  -0.003911  -0.001442  -0.024304   0.009545  -0.013485
     27       0.000121   0.010424   0.000955   0.088372   0.353004   0.259186
     28       0.000086  -0.012950  -0.001644  -0.141993  -0.694590  -0.487509
     29       0.000160   0.010322   0.000916   0.041220   0.197895   0.125663
     30       0.000933  -0.001102   0.021772  -0.000257   0.000035  -0.000020
     31       0.000504   0.001238  -0.031798   0.001425  -0.000225   0.000097
     32       0.000174  -0.000371   0.005325   0.000823  -0.000231   0.000062
     33      -0.005287   0.002109  -0.034029   0.000716  -0.000122  -0.000003
     34      -0.012441   0.004216  -0.068705   0.000437  -0.000062  -0.000000
     35      -0.001105   0.000445  -0.007207   0.000092   0.000005  -0.000009
     36      -0.001797   0.000241  -0.003102   0.000478  -0.000156   0.000058
     37       0.001549  -0.000102   0.001946   0.000374  -0.000081   0.000004
     38      -0.000386   0.000053  -0.000714   0.000051  -0.000021   0.000004
     39       0.000512  -0.000016   0.000602  -0.000354   0.000143  -0.000035
     40      -0.001290   0.000089  -0.000079   0.000001  -0.000019  -0.000004
     41       0.000083   0.000003   0.000148  -0.000059   0.000023  -0.000010
     42      -0.315880   0.023994   0.032306   0.003480  -0.000584   0.000116
     43      -0.113242   0.008777   0.012094   0.000916  -0.000172  -0.000019
     44      -0.070021   0.005335   0.007075   0.000759  -0.000153   0.000022
     45       0.403744  -0.001023  -0.061182   0.002407  -0.000300   0.000073
     46       0.823516  -0.001678  -0.126254   0.005797  -0.000726   0.000193
     47       0.091300  -0.000072  -0.013846   0.000586  -0.000073  -0.000019
     48       0.001724  -0.029976  -0.004945   0.000468  -0.001514  -0.000521
     49      -0.001426   0.083929   0.009471  -0.000684   0.002904   0.000293
     50       0.001050  -0.040896  -0.004797   0.000945  -0.000388   0.000965
     51       0.004640   0.004660  -0.002001   0.002660  -0.000272   0.000565
     52       0.009051   0.018867  -0.001533   0.002850  -0.001528   0.001135
     53       0.008819   0.016607  -0.001764   0.001113  -0.002404   0.001603
     54      -0.009583  -0.706390  -0.038200  -0.037905   0.008481   0.002780
     55       0.000071   0.000342   0.000081  -0.002965  -0.001353  -0.000482
     56      -0.001779  -0.095863  -0.004631  -0.012133   0.002141   0.000507
     57      -0.004167  -0.187389  -0.010145   0.000851   0.005229   0.004168
     58       0.014626   0.597952   0.032754  -0.005346  -0.017790  -0.015840
     59      -0.007139  -0.272643  -0.014898  -0.000325   0.003193   0.005011
     60      -0.000659   0.009826  -0.227165   0.004557  -0.000261   0.000335
     61      -0.001105  -0.015145   0.361530  -0.007156   0.000164  -0.000574
     62      -0.000054   0.002608  -0.056279  -0.000810   0.000519   0.000105
     63       0.067938  -0.023394   0.383642  -0.003222   0.000588   0.000052
     64       0.143398  -0.048721   0.793024  -0.006018   0.000862   0.000098
     65       0.014452  -0.004780   0.081070  -0.000557   0.000097   0.000017


-----------
IR SPECTRUM
-----------

 Mode   freq       eps      Int      T**2         TX        TY        TZ
       cm**-1   L/(mol*cm) km/mol    a.u.
----------------------------------------------------------------------------
  6:     25.96   0.003283   16.59  0.039457  (-0.080137  0.165375 -0.075410)
  7:     74.23   0.006699   33.85  0.028162  (-0.167049  0.003626  0.015618)
  8:    141.22   0.002577   13.02  0.005695  (-0.072598  0.007772  0.019089)
  9:    176.15   0.002041   10.31  0.003616  ( 0.052598 -0.010747 -0.027085)
 10:    228.26   0.005458   27.58  0.007461  ( 0.058170 -0.014968 -0.062076)
 11:    245.80   0.001157    5.85  0.001469  ( 0.017804 -0.021144 -0.026547)
 12:    288.26   0.009158   46.28  0.009914  ( 0.008256 -0.099192 -0.002668)
 13:    314.33   0.002778   14.04  0.002758  (-0.022684 -0.040614  0.024370)
 14:    354.02   0.004554   23.02  0.004015  ( 0.040780 -0.009418 -0.047571)
 15:    412.80   0.001216    6.14  0.000919  (-0.003711 -0.009040  0.028699)
 16:    421.83   0.002351   11.88  0.001739  ( 0.026167 -0.006804 -0.031755)
 17:    472.17   0.000334    1.69  0.000221  (-0.011031 -0.009152  0.003942)
 18:    508.31   0.003426   17.31  0.002103  (-0.044858  0.008441  0.004436)
 19:    594.64   0.000504    2.54  0.000264  (-0.003313  0.015902  0.000617)
 20:    621.82   0.003739   18.89  0.001876  ( 0.000631  0.004922  0.043030)
 21:    698.13   0.005160   26.08  0.002307  (-0.047648 -0.005496 -0.002450)
 22:    714.53   0.000074    0.37  0.000032  (-0.001419 -0.000408 -0.005481)
 23:    758.13   0.009829   49.67  0.004046  ( 0.013550  0.000787 -0.062141)
 24:    780.24   0.021106  106.66  0.008442  (-0.016999 -0.000619  0.090291)
 25:    788.48   0.010879   54.98  0.004306  ( 0.062210 -0.019484  0.007480)
 26:    812.81   0.004977   25.15  0.001911  ( 0.013260 -0.015623  0.038610)
 27:    834.24   0.011897   60.12  0.004450  (-0.039615  0.014257  0.051745)
 28:    855.32   0.006881   34.77  0.002511  ( 0.041251 -0.024640 -0.014207)
 29:    863.66   0.000060    0.30  0.000022  (-0.004210  0.001887  0.000520)
 30:    907.12   0.003741   18.91  0.001287  ( 0.005400 -0.025053  0.025102)
 31:    930.08   0.004942   24.97  0.001658  ( 0.000523  0.040438 -0.004745)
 32:    989.00   0.004633   23.41  0.001462  ( 0.009573 -0.030419 -0.021090)
 33:   1050.49   0.010217   51.63  0.003035  ( 0.044022  0.010330 -0.031470)
 34:   1064.21   0.002696   13.62  0.000791  (-0.025821 -0.001577 -0.011018)
 35:   1098.52   0.007353   37.16  0.002089  ( 0.031062  0.033484 -0.001682)
 36:   1125.81   0.008311   42.00  0.002304  ( 0.024039 -0.041541  0.000316)
 37:   1178.88   0.001178    5.95  0.000312  ( 0.002519 -0.017370  0.001916)
 38:   1222.88   0.007036   35.56  0.001796  (-0.040834  0.001900  0.011158)
 39:   1237.63   0.043408  219.37  0.010945  ( 0.085317 -0.058699  0.014852)
 40:   1258.27   0.068579  346.57  0.017008  ( 0.083548 -0.099006  0.015034)
 41:   1279.76   0.011512   58.18  0.002807  (-0.044137  0.024200 -0.016534)
 42:   1295.23   0.059108  298.71  0.014241  ( 0.113135 -0.031748  0.020818)
 43:   1319.69   0.006170   31.18  0.001459  (-0.033912  0.016180 -0.006867)
 44:   1348.00   0.004710   23.80  0.001090  (-0.027718  0.003222  0.017657)
 45:   1378.73   0.014166   71.59  0.003206  ( 0.003966  0.056486  0.000172)
 46:   1410.27   0.002784   14.07  0.000616  ( 0.005926  0.007780 -0.022814)
 47:   1431.76   0.007796   39.40  0.001699  (-0.016397  0.006147  0.037317)
 48:   1442.58   0.034549  174.59  0.007474  (-0.013107  0.058663  0.062133)
 49:   1462.68   0.054374  274.78  0.011601  (-0.090163  0.056018 -0.018259)
 50:   1486.78   0.081662  412.69  0.017140  ( 0.127265  0.002717  0.030603)
 51:   1539.91   0.028454  143.80  0.005766  (-0.065612 -0.033050 -0.019211)
 52:   1564.68   0.007843   39.63  0.001564  (-0.003676  0.031338 -0.023845)
 53:   1593.04   0.004270   21.58  0.000836  ( 0.013901  0.001796 -0.025298)
 54:   1597.49   0.008631   43.62  0.001686  ( 0.036412  0.008761 -0.016836)
 55:   2973.13   0.010268   51.89  0.001078  ( 0.026144 -0.003273  0.019585)
 56:   3016.08   0.001560    7.88  0.000161  (-0.002920  0.010853  0.005921)
 57:   3028.74   0.007506   37.93  0.000773  (-0.018238 -0.020885  0.002125)
 58:   3065.54   0.003791   19.16  0.000386  ( 0.012221 -0.014940  0.003650)
 59:   3072.55   0.049640  250.86  0.005042  (-0.056330 -0.041577 -0.011829)
 60:   3079.39   0.029169  147.41  0.002956  (-0.030079 -0.044653 -0.007569)
 61:   3084.84   0.004510   22.79  0.000456  ( 0.020855 -0.002923  0.003570)
 62:   3088.94   0.006415   32.42  0.000648  (-0.008823 -0.023880  0.000088)
 63:   3236.11   0.053211  268.91  0.005131  (-0.069011  0.000515  0.019193)
 64:   3382.30   0.032367  163.57  0.002986  ( 0.042711 -0.024519 -0.023684)
 65:   3430.31   0.027661  139.79  0.002516  (-0.004027 -0.030162  0.039880)

* The epsilon (eps) is given for a Dirac delta lineshape.
** The dipole moment derivative (T) already includes vibrational overlap.

The first frequency considered to be a vibration is 6
The total number of vibrations considered is 60


--------------------------
THERMOCHEMISTRY AT 298.15K
--------------------------

Temperature         ... 298.15 K
Pressure            ... 1.00 atm
Total Mass          ... 153.18 AMU

Throughout the following assumptions are being made:
  (1) The electronic state is orbitally nondegenerate
  (2) There are no thermally accessible electronically excited states
  (3) Hindered rotations indicated by low frequency modes are not
      treated as such but are treated as vibrations and this may
      cause some error
  (4) All equations used are the standard statistical mechanics
      equations for an ideal gas
  (5) All vibrations are strictly harmonic

freq.      25.96  E(vib)   ...       0.56 
freq.      74.23  E(vib)   ...       0.49 
freq.     141.22  E(vib)   ...       0.41 
freq.     176.15  E(vib)   ...       0.38 
freq.     228.26  E(vib)   ...       0.32 
freq.     245.80  E(vib)   ...       0.31 
freq.     288.26  E(vib)   ...       0.27 
freq.     314.33  E(vib)   ...       0.25 
freq.     354.02  E(vib)   ...       0.22 
freq.     412.80  E(vib)   ...       0.19 
freq.     421.83  E(vib)   ...       0.18 
freq.     472.17  E(vib)   ...       0.15 
freq.     508.31  E(vib)   ...       0.14 
freq.     594.64  E(vib)   ...       0.10 
freq.     621.82  E(vib)   ...       0.09 
freq.     698.13  E(vib)   ...       0.07 
freq.     714.53  E(vib)   ...       0.07 
freq.     758.13  E(vib)   ...       0.06 
freq.     780.24  E(vib)   ...       0.05 
freq.     788.48  E(vib)   ...       0.05 
freq.     812.81  E(vib)   ...       0.05 
freq.     834.24  E(vib)   ...       0.04 
freq.     855.32  E(vib)   ...       0.04 
freq.     863.66  E(vib)   ...       0.04 
freq.     907.12  E(vib)   ...       0.03 
freq.     930.08  E(vib)   ...       0.03 
freq.     989.00  E(vib)   ...       0.02 
freq.    1050.49  E(vib)   ...       0.02 
freq.    1064.21  E(vib)   ...       0.02 
freq.    1098.52  E(vib)   ...       0.02 
freq.    1125.81  E(vib)   ...       0.01 
freq.    1178.88  E(vib)   ...       0.01 
freq.    1222.88  E(vib)   ...       0.01 
freq.    1237.63  E(vib)   ...       0.01 
freq.    1258.27  E(vib)   ...       0.01 
freq.    1279.76  E(vib)   ...       0.01 
freq.    1295.23  E(vib)   ...       0.01 
freq.    1319.69  E(vib)   ...       0.01 
freq.    1348.00  E(vib)   ...       0.01 
freq.    1378.73  E(vib)   ...       0.01 
freq.    1410.27  E(vib)   ...       0.00 
freq.    1431.76  E(vib)   ...       0.00 
freq.    1442.58  E(vib)   ...       0.00 
freq.    1462.68  E(vib)   ...       0.00 
freq.    1486.78  E(vib)   ...       0.00 
freq.    1539.91  E(vib)   ...       0.00 
freq.    1564.68  E(vib)   ...       0.00 
freq.    1593.04  E(vib)   ...       0.00 
freq.    1597.49  E(vib)   ...       0.00 
freq.    2973.13  E(vib)   ...       0.00 
freq.    3016.08  E(vib)   ...       0.00 
freq.    3028.74  E(vib)   ...       0.00 
freq.    3065.54  E(vib)   ...       0.00 
freq.    3072.55  E(vib)   ...       0.00 
freq.    3079.39  E(vib)   ...       0.00 
freq.    3084.84  E(vib)   ...       0.00 
freq.    3088.94  E(vib)   ...       0.00 
freq.    3236.11  E(vib)   ...       0.00 
freq.    3382.30  E(vib)   ...       0.00 
freq.    3430.31  E(vib)   ...       0.00 

------------
INNER ENERGY
------------

The inner energy is: U= E(el) + E(ZPE) + E(vib) + E(rot) + E(trans)
    E(el)   - is the total energy from the electronic structure calculation
              = E(kin-el) + E(nuc-el) + E(el-el) + E(nuc-nuc)
    E(ZPE)  - the the zero temperature vibrational energy from the frequency calculation
    E(vib)  - the the finite temperature correction to E(ZPE) due to population
              of excited vibrational states
    E(rot)  - is the rotational thermal energy
    E(trans)- is the translational thermal energy

Summary of contributions to the inner energy U:
Electronic energy                ...   -516.28253928 Eh
Zero point energy                ...      0.17919327 Eh     112.45 kcal/mol
Thermal vibrational correction   ...      0.00764585 Eh       4.80 kcal/mol
Thermal rotational correction    ...      0.00141627 Eh       0.89 kcal/mol
Thermal translational correction ...      0.00141627 Eh       0.89 kcal/mol
-----------------------------------------------------------------------
Total thermal energy                   -516.09286762 Eh


Summary of corrections to the electronic energy:
(perhaps to be used in another calculation)
Total thermal correction                  0.01047839 Eh       6.58 kcal/mol
Non-thermal (ZPE) correction              0.17919327 Eh     112.45 kcal/mol
-----------------------------------------------------------------------
Total correction                          0.18967166 Eh     119.02 kcal/mol


--------
ENTHALPY
--------

The enthalpy is H = U + kB*T
                kB is Boltzmann's constant
Total free energy                 ...   -516.09286762 Eh 
Thermal Enthalpy correction       ...      0.00094421 Eh       0.59 kcal/mol
-----------------------------------------------------------------------
Total Enthalpy                    ...   -516.09192341 Eh


Note: Only C1 symmetry has been detected, increase convergence thresholds 
      if your molecule has a higher symmetry. Symmetry factor of 1.0 is   
      used for the rotational entropy correction. 
 

Note: Rotational entropy computed according to Herzberg 
Infrared and Raman Spectra, Chapter V,1, Van Nostrand Reinhold, 1945 
Point Group:  C1, Symmetry Number:   1  
Rotational constants in cm-1:     0.073361     0.021896     0.019340 

Vibrational entropy computed according to the QRRHO of S. Grimme
Chem.Eur.J. 2012 18 9955


-------
ENTROPY
-------

The entropy contributions are T*S = T*(S(el)+S(vib)+S(rot)+S(trans))
     S(el)   - electronic entropy
     S(vib)  - vibrational entropy
     S(rot)  - rotational entropy
     S(trans)- translational entropy
The entropies will be listed as multiplied by the temperature to get
units of energy

Electronic entropy                ...      0.00000000 Eh      0.00 kcal/mol
Vibrational entropy               ...      0.01299623 Eh      8.16 kcal/mol
Rotational entropy                ...      0.01441083 Eh      9.04 kcal/mol
Translational entropy             ...      0.01947521 Eh     12.22 kcal/mol
-----------------------------------------------------------------------
Final entropy term                ...      0.04688227 Eh     29.42 kcal/mol

In case the symmetry of your molecule has not been determined correctly
or in case you have a reason to use a different symmetry number we print 
out the resulting rotational entropy values for sn=1,12 :
 --------------------------------------------------------
|  sn= 1 | S(rot)=       0.01441083 Eh      9.04 kcal/mol|
|  sn= 2 | S(rot)=       0.01375637 Eh      8.63 kcal/mol|
|  sn= 3 | S(rot)=       0.01337354 Eh      8.39 kcal/mol|
|  sn= 4 | S(rot)=       0.01310192 Eh      8.22 kcal/mol|
|  sn= 5 | S(rot)=       0.01289123 Eh      8.09 kcal/mol|
|  sn= 6 | S(rot)=       0.01271909 Eh      7.98 kcal/mol|
|  sn= 7 | S(rot)=       0.01257354 Eh      7.89 kcal/mol|
|  sn= 8 | S(rot)=       0.01244746 Eh      7.81 kcal/mol|
|  sn= 9 | S(rot)=       0.01233625 Eh      7.74 kcal/mol|
|  sn=10 | S(rot)=       0.01223677 Eh      7.68 kcal/mol|
|  sn=11 | S(rot)=       0.01214678 Eh      7.62 kcal/mol|
|  sn=12 | S(rot)=       0.01206463 Eh      7.57 kcal/mol|
 --------------------------------------------------------


-------------------
GIBBS FREE ENERGY
-------------------

The Gibbs free energy is G = H - T*S

Total enthalpy                    ...   -516.09192341 Eh 
Total entropy correction          ...     -0.04688227 Eh    -29.42 kcal/mol
-----------------------------------------------------------------------
Final Gibbs free energy         ...   -516.13880568 Eh

For completeness - the Gibbs free energy minus the electronic energy
G-E(el)                           ...      0.14373360 Eh     90.19 kcal/mol


No protocol specified

Timings for individual modules:

Sum of individual times         ...      985.246 sec (=  16.421 min)
GTO integral calculation        ...        4.028 sec (=   0.067 min)   0.4 %
SCF iterations                  ...       37.780 sec (=   0.630 min)   3.8 %
SCF Gradient evaluation         ...       11.599 sec (=   0.193 min)   1.2 %
Geometry relaxation             ...        0.085 sec (=   0.001 min)   0.0 %
Numerical frequency calculation ...      931.755 sec (=  15.529 min)  94.6 %



                             ****ORCA TERMINATED NORMALLY****
TOTAL RUN TIME: 0 days 1 hours 49 minutes 27 seconds 958 msec
