
                                 *****************
                                 * O   R   C   A *
                                 *****************

                                            #,                                       
                                            ###                                      
                                            ####                                     
                                            #####                                    
                                            ######                                   
                                           ########,                                 
                                     ,,################,,,,,                         
                               ,,#################################,,                 
                          ,,##########################################,,             
                       ,#########################################, ''#####,          
                    ,#############################################,,   '####,        
                  ,##################################################,,,,####,       
                ,###########''''           ''''###############################       
              ,#####''   ,,,,##########,,,,          '''####'''          '####       
            ,##' ,,,,###########################,,,                        '##       
           ' ,,###''''                  '''############,,,                           
         ,,##''                                '''############,,,,        ,,,,,,###''
      ,#''                                            '''#######################'''  
     '                                                          ''''####''''         
             ,#######,   #######,   ,#######,      ##                                
            ,#'     '#,  ##    ##  ,#'     '#,    #''#        ######   ,####,        
            ##       ##  ##   ,#'  ##            #'  '#       #        #'  '#        
            ##       ##  #######   ##           ,######,      #####,   #    #        
            '#,     ,#'  ##    ##  '#,     ,#' ,#      #,         ##   #,  ,#        
             '#######'   ##     ##  '#######'  #'      '#     #####' # '####'        



                  #######################################################
                  #                        -***-                        #
                  #          Department of theory and spectroscopy      #
                  #    Directorship and core code : Frank Neese         #
                  #        Max Planck Institute fuer Kohlenforschung    #
                  #                Kaiser Wilhelm Platz 1               #
                  #                 D-45470 Muelheim/Ruhr               #
                  #                      Germany                        #
                  #                                                     #
                  #                  All rights reserved                #
                  #                        -***-                        #
                  #######################################################


                         Program Version 5.0.2 -  RELEASE  -


 With contributions from (in alphabetic order):
   Daniel Aravena         : Magnetic Suceptibility
   Michael Atanasov       : Ab Initio Ligand Field Theory (pilot matlab implementation)
   Alexander A. Auer      : GIAO ZORA, VPT2 properties, NMR spectrum
   Ute Becker             : Parallelization
   Giovanni Bistoni       : ED, misc. LED, open-shell LED, HFLD
   Martin Brehm           : Molecular dynamics
   Dmytro Bykov           : SCF Hessian
   Vijay G. Chilkuri      : MRCI spin determinant printing, contributions to CSF-ICE
   Dipayan Datta          : RHF DLPNO-CCSD density
   Achintya Kumar Dutta   : EOM-CC, STEOM-CC
   Dmitry Ganyushin       : Spin-Orbit,Spin-Spin,Magnetic field MRCI
   Miquel Garcia          : C-PCM and meta-GGA Hessian, CC/C-PCM, Gaussian charge scheme
   Yang Guo               : DLPNO-NEVPT2, F12-NEVPT2, CIM, IAO-localization
   Andreas Hansen         : Spin unrestricted coupled pair/coupled cluster methods
   Benjamin Helmich-Paris : MC-RPA, TRAH-SCF, COSX integrals
   Lee Huntington         : MR-EOM, pCC
   Robert Izsak           : Overlap fitted RIJCOSX, COSX-SCS-MP3, EOM
   Marcus Kettner         : VPT2
   Christian Kollmar      : KDIIS, OOCD, Brueckner-CCSD(T), CCSD density, CASPT2, CASPT2-K
   Simone Kossmann        : Meta GGA functionals, TD-DFT gradient, OOMP2, MP2 Hessian
   Martin Krupicka        : Initial AUTO-CI
   Lucas Lang             : DCDCAS
   Marvin Lechner         : AUTO-CI (C++ implementation), FIC-MRCC
   Dagmar Lenk            : GEPOL surface, SMD
   Dimitrios Liakos       : Extrapolation schemes; Compound Job, initial MDCI parallelization
   Dimitrios Manganas     : Further ROCIS development; embedding schemes
   Dimitrios Pantazis     : SARC Basis sets
   Anastasios Papadopoulos: AUTO-CI, single reference methods and gradients
   Taras Petrenko         : DFT Hessian,TD-DFT gradient, ASA, ECA, R-Raman, ABS, FL, XAS/XES, NRVS
   Peter Pinski           : DLPNO-MP2, DLPNO-MP2 Gradient
   Christoph Reimann      : Effective Core Potentials
   Marius Retegan         : Local ZFS, SOC
   Christoph Riplinger    : Optimizer, TS searches, QM/MM, DLPNO-CCSD(T), (RO)-DLPNO pert. Triples
   Tobias Risthaus        : Range-separated hybrids, TD-DFT gradient, RPA, STAB
   Michael Roemelt        : Original ROCIS implementation
   Masaaki Saitow         : Open-shell DLPNO-CCSD energy and density
   Barbara Sandhoefer     : DKH picture change effects
   Avijit Sen             : IP-ROCIS
   Kantharuban Sivalingam : CASSCF convergence, NEVPT2, FIC-MRCI
   Bernardo de Souza      : ESD, SOC TD-DFT
   Georgi Stoychev        : AutoAux, RI-MP2 NMR, DLPNO-MP2 response
   Willem Van den Heuvel  : Paramagnetic NMR
   Boris Wezisla          : Elementary symmetry handling
   Frank Wennmohs         : Technical directorship


 We gratefully acknowledge several colleagues who have allowed us to
 interface, adapt or use parts of their codes:
   Stefan Grimme, W. Hujo, H. Kruse, P. Pracht,  : VdW corrections, initial TS optimization,
                  C. Bannwarth, S. Ehlert          DFT functionals, gCP, sTDA/sTD-DF
   Ed Valeev, F. Pavosevic, A. Kumar             : LibInt (2-el integral package), F12 methods
   Garnet Chan, S. Sharma, J. Yang, R. Olivares  : DMRG
   Ulf Ekstrom                                   : XCFun DFT Library
   Mihaly Kallay                                 : mrcc  (arbitrary order and MRCC methods)
   Jiri Pittner, Ondrej Demel                    : Mk-CCSD
   Frank Weinhold                                : gennbo (NPA and NBO analysis)
   Christopher J. Cramer and Donald G. Truhlar   : smd solvation model
   Lars Goerigk                                  : TD-DFT with DH, B97 family of functionals
   V. Asgeirsson, H. Jonsson                     : NEB implementation
   FAccTs GmbH                                   : IRC, NEB, NEB-TS, DLPNO-Multilevel, CI-OPT
                                                   MM, QMMM, 2- and 3-layer-ONIOM, Crystal-QMMM,
                                                   LR-CPCM, SF, NACMEs, symmetry and pop. for TD-DFT,
                                                   nearIR, NL-DFT gradient (VV10), updates on ESD,
                                                   ML-optimized integration grids
   S Lehtola, MJT Oliveira, MAL Marques          : LibXC Library
   Liviu Ungur et al                             : ANISO software


 Your calculation uses the libint2 library for the computation of 2-el integrals
 For citations please refer to: http://libint.valeyev.net

 Your ORCA version has been built with support for libXC version: 5.1.0
 For citations please refer to: https://tddft.org/programs/libxc/

 This ORCA versions uses:
   CBLAS   interface :  Fast vector & matrix operations
   LAPACKE interface :  Fast linear algebra routines
   SCALAPACK package :  Parallel linear algebra routines
   Shared memory     :  Shared parallel matrices
   BLAS/LAPACK       :  OpenBLAS 0.3.15  USE64BITINT DYNAMIC_ARCH NO_AFFINITY Haswell SINGLE_THREADED
        Core in use  :  Haswell
   Copyright (c) 2011-2014, The OpenBLAS Project


Your calculation utilizes the atom-pairwise dispersion correction
with the Becke-Johnson damping scheme (D3BJ)
Cite in your paper:
S.Grimme, S.Ehrlich, L.Goerigk, J Comput Chem, (2011), 32, 1456–1465 
S.Grimme, J.Antony, S.Ehrlich and H.Krieg, J.Chem.Phys., 132, (2010), 154104 
   

================================================================================

----- Orbital basis set information -----
Your calculation utilizes the basis: def2-TZVP
   F. Weigend and R. Ahlrichs, Phys. Chem. Chem. Phys. 7, 3297 (2005).

----- AuxJ basis set information -----
Your calculation utilizes the auxiliary basis: def2/J
   F. Weigend, Phys. Chem. Chem. Phys. 8, 1057 (2006).

================================================================================
                                        WARNINGS
                       Please study these warnings very carefully!
================================================================================

WARNING: Old DensityContainer found on disk!
         Will remove this file - 
         If you want to keep old densities, please start your calculation with a different basename. 

WARNING: Gradients needed for Numerical Frequencies
  ===> : Setting RunTyp to EnGrad

WARNING: your system is open-shell and RHF/RKS was chosen
  ===> : WILL SWITCH to UHF/UKS


WARNING: The environment variable RSH_COMMAND is not set!
  ===> : All Displacements for the Numerical Hessian or Gradient calculation
         will be started on localhost

INFO   : the flag for use of the SHARK integral package has been found!

================================================================================
                                       INPUT FILE
================================================================================
NAME = ex.inp
|  1> ! PBE D3 def2-TZVP numfreq PModel NOAUTOSTART cpcm(water)
|  2> %pal nprocs=16 end
|  3> # %geom maxiter=150 end
|  4> %base "cu2+"
|  5> *xyz 2 2
|  6>   Cu  2.79467885448518     -2.80596664371773      0.03172156093816
|  7> *
|  8> 
|  9>                          ****END OF INPUT****
================================================================================

                     *******************************
                     * Energy+Gradient Calculation *
                     *******************************

---------------------------------
CARTESIAN COORDINATES (ANGSTROEM)
---------------------------------
  Cu     2.794679   -2.805967    0.031722

----------------------------
CARTESIAN COORDINATES (A.U.)
----------------------------
  NO LB      ZA    FRAG     MASS         X           Y           Z
   0 Cu   29.0000    0    63.550    5.281178   -5.302508    0.059945

--------------------------------
INTERNAL COORDINATES (ANGSTROEM)
--------------------------------
 Cu     0   0   0     0.000000000000     0.00000000     0.00000000

---------------------------
INTERNAL COORDINATES (A.U.)
---------------------------
 Cu     0   0   0     0.000000000000     0.00000000     0.00000000

---------------------
BASIS SET INFORMATION
---------------------
There are 1 groups of distinct atoms

 Group   1 Type Cu  : 17s11p7d1f contracted to 6s4p4d1f pattern {842111/6311/4111/1}

Atom   0Cu   basis set group =>   1
---------------------------------
AUXILIARY/J BASIS SET INFORMATION
---------------------------------
There are 1 groups of distinct atoms

 Group   1 Type Cu  : 19s5p5d3f3g contracted to 8s5p4d3f3g pattern {121111111/11111/2111/111/111}

Atom   0Cu   basis set group =>   1
No protocol specified


           ************************************************************
           *        Program running with 16 parallel MPI-processes    *
           *              working on a common directory               *
           ************************************************************
------------------------------------------------------------------------------
                           ORCA GTO INTEGRAL CALCULATION
                           -- RI-GTO INTEGRALS CHOSEN --
------------------------------------------------------------------------------
------------------------------------------------------------------------------
                   ___                                                        
                  /   \      - P O W E R E D   B Y -                         
                 /     \                                                     
                 |  |  |   _    _      __       _____    __    __             
                 |  |  |  | |  | |    /  \     |  _  \  |  |  /  |          
                  \  \/   | |  | |   /    \    | | | |  |  | /  /          
                 / \  \   | |__| |  /  /\  \   | |_| |  |  |/  /          
                |  |  |   |  __  | /  /__\  \  |    /   |      \           
                |  |  |   | |  | | |   __   |  |    \   |  |\   \          
                \     /   | |  | | |  |  |  |  | |\  \  |  | \   \       
                 \___/    |_|  |_| |__|  |__|  |_| \__\ |__|  \__/        
                                                                              
                      - O R C A' S   B I G   F R I E N D -                    
                                      &                                       
                       - I N T E G R A L  F E E D E R -                       
                                                                              
 v1 FN, 2020, v2 2021                                                         
------------------------------------------------------------------------------


Reading SHARK input file cu2+.SHARKINP.tmp ... ok
----------------------
SHARK INTEGRAL PACKAGE
----------------------

Number of atoms                             ...      1
Number of basis functions                   ...     45
Number of shells                            ...     15
Maximum angular momentum                    ...      3
Integral batch strategy                     ... SHARK/LIBINT Hybrid
RI-J (if used) integral strategy            ... SPLIT-RIJ (Revised 2003 algorithm where possible)
Printlevel                                  ...      1
Contraction scheme used                     ... SEGMENTED contraction
Coulomb Range Separation                    ... NOT USED
Exchange Range Separation                   ... NOT USED
Finite Nucleus Model                        ... NOT USED
Auxiliary Coulomb fitting basis             ... AVAILABLE
   # of basis functions in Aux-J            ...     91
   # of shells in Aux-J                     ...     23
   Maximum angular momentum in Aux-J        ...      4
Auxiliary J/K fitting basis                 ... NOT available
Auxiliary Correlation fitting basis         ... NOT available
Auxiliary 'external' fitting basis          ... NOT available
Integral threshold                          ...     2.500000e-11
Primitive cut-off                           ...     2.500000e-12
Primitive pair pre-selection threshold      ...     2.500000e-12

Calculating pre-screening integrals         ... done (  0.1 sec) Dimension = 15
Organizing shell pair data                  ... done (  0.0 sec)
Shell pair information
Total number of shell pairs                 ...       120
Shell pairs after pre-screening             ...       120
Total number of primitive shell pairs       ...       725
Primitive shell pairs kept                  ...       725
          la=0 lb=0:     21 shell pairs
          la=1 lb=0:     24 shell pairs
          la=1 lb=1:     10 shell pairs
          la=2 lb=0:     24 shell pairs
          la=2 lb=1:     16 shell pairs
          la=2 lb=2:     10 shell pairs
          la=3 lb=0:      6 shell pairs
          la=3 lb=1:      4 shell pairs
          la=3 lb=2:      4 shell pairs
          la=3 lb=3:      1 shell pairs

Calculating one electron integrals          ... done (  0.0 sec)
Calculating RI/J V-Matrix + Cholesky decomp.... done (  0.0 sec)
Calculating Nuclear repulsion               ... done (  0.0 sec) ENN=      0.000000000000 Eh

SHARK setup successfully completed in   0.1 seconds

Maximum memory used throughout the entire GTOINT-calculation: 17.3 MB
No protocol specified


           ************************************************************
           *        Program running with 16 parallel MPI-processes    *
           *              working on a common directory               *
           ************************************************************
-------------------------------------------------------------------------------
                                 ORCA SCF
-------------------------------------------------------------------------------

------------
SCF SETTINGS
------------
Hamiltonian:
 Density Functional     Method          .... DFT(GTOs)
 Exchange Functional    Exchange        .... PBE
   PBE kappa parameter   XKappa         ....  0.804000
   PBE mue parameter    XMuePBE         ....  0.219520
 Correlation Functional Correlation     .... PBE
   PBE beta parameter  CBetaPBE         ....  0.066725
 LDA part of GGA corr.  LDAOpt          .... PW91-LDA
 Gradients option       PostSCFGGA      .... off
   Density functional embedding theory  .... OFF
   NL short-range parameter             ....  6.400000
 RI-approximation to the Coulomb term is turned on
   Number of AuxJ basis functions       .... 91


General Settings:
 Integral files         IntName         .... cu2+
 Hartree-Fock type      HFTyp           .... UHF
 Total Charge           Charge          ....    2
 Multiplicity           Mult            ....    2
 Number of Electrons    NEL             ....   27
 Basis Dimension        Dim             ....   45
 Nuclear Repulsion      ENuc            ....      0.0000000000 Eh

Convergence Acceleration:
 DIIS                   CNVDIIS         .... on
   Start iteration      DIISMaxIt       ....    12
   Startup error        DIISStart       ....  0.200000
   # of expansion vecs  DIISMaxEq       ....     5
   Bias factor          DIISBfac        ....   1.050
   Max. coefficient     DIISMaxC        ....  10.000
 Trust-Rad. Augm. Hess. CNVTRAH         .... auto
   Auto Start mean grad. ratio tolernc. ....  1.125000
   Auto Start start iteration           ....    20
   Auto Start num. interpolation iter.  ....    10
   Max. Number of Micro iterations      ....    16
   Max. Number of Macro iterations      .... Maxiter - #DIIS iter
   Number of Davidson start vectors     ....     2
   Converg. threshold I  (grad. norm)   ....   1.000e-05
   Converg. threshold II (energy diff.) ....   1.000e-08
   Grad. Scal. Fac. for Micro threshold ....   0.100
   Minimum threshold for Micro iter.    ....   0.010
   NR start threshold (gradient norm)   ....   0.001
   Initial trust radius                 ....   0.400
   Minimum AH scaling param. (alpha)    ....   1.000
   Maximum AH scaling param. (alpha)    .... 1000.000
   Orbital update algorithm             .... Taylor
   White noise on init. David. guess    .... on
   Maximum white noise                  ....   0.010
   Quad. conv. algorithm                .... NR
 SOSCF                  CNVSOSCF        .... off
 Level Shifting         CNVShift        .... on
   Level shift para.    LevelShift      ....    0.2500
   Turn off err/grad.   ShiftErr        ....    0.0010
 Zerner damping         CNVZerner       .... off
 Static damping         CNVDamp         .... on
   Fraction old density DampFac         ....    0.7000
   Max. Damping (<1)    DampMax         ....    0.9800
   Min. Damping (>=0)   DampMin         ....    0.0000
   Turn off err/grad.   DampErr         ....    0.1000
 Fernandez-Rico         CNVRico         .... off

SCF Procedure:
 Maximum # iterations   MaxIter         ....   125
 SCF integral mode      SCFMode         .... Direct
   Integral package                     .... SHARK and LIBINT hybrid scheme
 Reset frequency        DirectResetFreq ....    20
 Integral Threshold     Thresh          ....  2.500e-11 Eh
 Primitive CutOff       TCut            ....  2.500e-12 Eh

Convergence Tolerance:
 Convergence Check Mode ConvCheckMode   .... Total+1el-Energy
 Convergence forced     ConvForced      .... 0
 Energy Change          TolE            ....  1.000e-08 Eh
 1-El. energy change                    ....  1.000e-05 Eh
 DIIS Error             TolErr          ....  5.000e-07


Diagonalization of the overlap matrix:
Smallest eigenvalue                        ... 7.073e-02
Time for diagonalization                   ...    0.001 sec
Threshold for overlap eigenvalues          ... 1.000e-08
Number of eigenvalues below threshold      ... 0
Time for construction of square roots      ...    0.001 sec
Total time needed                          ...    0.022 sec

Time for model grid setup =    0.041 sec

------------------------------
INITIAL GUESS: MODEL POTENTIAL
------------------------------
Loading Hartree-Fock densities                     ... done
Calculating cut-offs                               ... done
Initializing the effective Hamiltonian             ... done
Setting up the integral package (SHARK)            ... done
Starting the Coulomb interaction                   ... done (   0.0 sec)
Reading the grid                                   ... done
Mapping shells                                     ... done
Starting the XC term evaluation                    ... done (   0.0 sec)
  promolecular density results
     # of electrons  =     29.000002311
     EX              =    -65.435521160
     EC              =     -1.335840562
     EX+EC           =    -66.771361722
Transforming the Hamiltonian                       ... done (   0.0 sec)
Diagonalizing the Hamiltonian                      ... done (   0.0 sec)
Back transforming the eigenvectors                 ... done (   0.0 sec)
Now organizing SCF variables                       ... done
                      ------------------
                      INITIAL GUESS DONE (   0.1 sec)
                      ------------------
-------------------
DFT GRID GENERATION
-------------------

General Integration Accuracy     IntAcc      ... 4.388
Radial Grid Type                 RadialGrid  ... OptM3 with GC (2021)
Angular Grid (max. ang.)         AngularGrid ... 4 (Lebedev-302)
Angular grid pruning method      GridPruning ... 4 (adaptive)
Weight generation scheme         WeightScheme... Becke
Basis function cutoff            BFCut       ... 1.0000e-11
Integration weight cutoff        WCut        ... 1.0000e-14
Angular grids for H and He will be reduced by one unit
Partially contracted basis set               ... off
Rotationally invariant grid construction     ... off

Total number of grid points                  ...    11336
Total number of batches                      ...      178
Average number of points per batch           ...       63
Average number of grid points per atom       ...    11336
Time for grid setup =    0.151 sec


--------------------
CPCM SOLVATION MODEL
--------------------
CPCM parameters:
  Epsilon                                         ...      80.4000
  Refrac                                          ...       1.3300
  Rsolv                                           ...       1.3000
  Surface type                                    ... GAUSSIAN VDW
  Epsilon function type                           ...         CPCM
Radii:
 Radius for Cu used is    3.1747 Bohr (=   1.6800 Ang.)
Calculating surface                               ...        done! (  0.0s)
GEPOL surface points                              ...          110
GEPOL Volume                                      ...     134.0334
GEPOL Surface-area                                ...     126.6561
Calculating surface distance matrix               ...        done! (  0.0s)
Performing Cholesky decomposition & store         ...        done! (  0.0s)
Overall time for CPCM initialization              ...                 0.0s
--------------
SCF ITERATIONS
--------------
ITER       Energy         Delta-E        Max-DP      RMS-DP      [F,P]     Damp
               ***  Starting incremental Fock matrix formation  ***
  0  -1639.7201393545   0.000000000000 0.02318894  0.00145512  0.2806279 0.7000
  1  -1639.7535942735  -0.033454918981 0.00931483  0.00065197  0.0958357 0.7000
                               ***Turning on DIIS***
  2  -1639.7656710701  -0.012076796605 0.01394171  0.00111186  0.0351042 0.0000
  3  -1639.7924698106  -0.026798740534 0.00640956  0.00043093  0.0319760 0.0000
  4  -1639.7928806653  -0.000410854688 0.00302207  0.00021738  0.0302128 0.0000
  5  -1639.7934162166  -0.000535551273 0.00048710  0.00001619  0.0011819 0.0000
  6  -1639.7934181792  -0.000001962699 0.45601072  0.01217923  0.0002187 0.0000
  7  -1639.7885148366   0.004903342696 0.00000056  0.00000003  0.1350273 0.7000
  8  -1639.7885152717  -0.000000435099 0.00000074  0.00000003  0.1350221 0.7000
  9  -1639.7885157472  -0.000000475551 0.00000070  0.00000003  0.1350165 0.7000
 10  -1639.7885161465  -0.000000399247 0.00000508  0.00000032  0.1350120 0.7000
 11  -1639.7885156738   0.000000472624 0.00366122  0.00018861  0.1350174 0.7000
 12  -1639.7903838608  -0.001868186941 0.01061592  0.00047359  0.0916822 0.0000
 13  -1639.7944244315  -0.004040570695 0.00120556  0.00006808  0.0039244 0.0000
 14  -1639.7944167872   0.000007644307 0.00055161  0.00003623  0.0055675 0.0000
 15  -1639.7944363165  -0.000019529347 0.38005359  0.01083267  0.0005785 0.0000
 16  -1639.7896949693   0.004741347228 0.00000264  0.00000014  0.1089026 0.7000
 17  -1639.7896925754   0.000002393894 0.00000255  0.00000014  0.1089315 0.7000
 18  -1639.7896904390   0.000002136362 0.00000127  0.00000007  0.1089560 0.7000
 19  -1639.7896904006   0.000000038453 0.00002977  0.00000201  0.1089555 0.7000
               *** Restarting incremental Fock matrix formation ***
                                   *** Resetting DIIS ***

 WARNING: the maximum gradient error descreased on average only by a factor   0.8
          during the last 20 iterations

                      *** Initiating the TRAH-SCF procedure ***


TRAH GRID
---------

General Integration Accuracy     IntAcc      ... 3.467
Radial Grid Type                 RadialGrid  ... OptM3 with GC (2021)
Angular Grid (max. ang.)         AngularGrid ... 1 (Lebedev-50)
Angular grid pruning method      GridPruning ... 4 (adaptive)
Weight generation scheme         WeightScheme... Becke
Basis function cutoff            BFCut       ... 1.0000e-11
Integration weight cutoff        WCut        ... 1.0000e-14
Angular grids for H and He will be reduced by one unit
Partially contracted basis set               ... off
Rotationally invariant grid construction     ... off

Total number of grid points                  ...     4348
Total number of batches                      ...       68
Average number of points per batch           ...       63
Average number of grid points per atom       ...     4348

 --------------------------------------------------------------------------------------------
   Iter.        energy            ||Error||_2        Shift      TRadius  Mac/Mic        Rej.
 --------------------------------------------------------------------------------------------
WARNING: 2 diagonal Hessian elements are negative!
    0      -1639.789688571914     1.719710e-01                     0.400 (TRAH MAcro)   No
WARNING : negative HOMO - LUMO gap : (op =  beta) -0.010452
    0     dE    -3.214183e-03     1.229059e-01    -3.2131e-03      0.019 (TRAH MIcro)
    0     dE    -4.649867e-03     1.383389e-02    -4.6423e-03      0.040 (TRAH MIcro)
    0     dE    -4.654847e-03     1.267248e-02    -4.6472e-03      0.041 (TRAH MIcro)
    0     dE    -4.660671e-03     1.302365e-02    -4.6528e-03      0.041 (TRAH MIcro)
    0     dE    -5.082943e-03     1.659081e-02    -4.8385e-03      0.225 (TRAH MIcro)
    0     dE    -5.450263e-03     3.941653e-03    -4.9294e-03      0.325 (TRAH MIcro)
WARNING: 1 diagonal Hessian elements are negative!
    1      -1639.794004882355     2.005660e-02                     0.480 (TRAH MAcro)   No
WARNING : negative HOMO - LUMO gap : (op =  beta) -0.001492
    1     dE    -4.882393e-05     4.739098e-02    -4.8824e-05      0.003 (TRAH MIcro)
    1     dE    -8.283239e-05     2.188878e-02    -8.2827e-05      0.008 (TRAH MIcro)
    1     dE    -8.877262e-05     2.187140e-02    -8.8737e-05      0.020 (TRAH MIcro)
    1     dE    -2.166377e-04     3.014792e-02    -2.1446e-04      0.101 (TRAH MIcro)
    1     dE    -4.653285e-04     2.876699e-02    -4.3523e-04      0.263 (TRAH MIcro)
    1     dE    -6.177638e-04     1.915136e-03    -5.5092e-04      0.348 (TRAH MIcro)
    2      -1639.794229642728     2.270515e-02                     0.480 (TRAH MAcro)   No
WARNING : small    HOMO - LUMO gap : (op =  beta) 0.000146
    2     dE    -6.031113e-05     2.233977e-02    -6.0311e-05      0.003 (TRAH MIcro)
    2     dE    -1.513927e-04     1.803651e-02    -1.5037e-04      0.083 (TRAH MIcro)
    2     dE    -2.028699e-04     4.150108e-03    -2.0046e-04      0.110 (TRAH MIcro)
    2     dE    -2.034886e-04     3.792722e-03    -2.0103e-04      0.111 (TRAH MIcro)
    2     dE    -2.056176e-04     5.174981e-04    -2.0285e-04      0.117 (TRAH MIcro)
WARNING: 2 diagonal Hessian elements are negative!
    3      -1639.794439834193     2.758523e-03                     0.576 (TRAH MAcro)   No
WARNING : negative HOMO - LUMO gap : (op =  beta) -0.000039
    3     dE    -8.489531e-07     2.307077e-03    -8.4896e-07      0.000 (TRAH MIcro)
    3     dE    -1.258168e-06     2.305413e-04    -1.2582e-06      0.001 (TRAH MIcro)
WARNING: 2 diagonal Hessian elements are negative!
    4      -1639.794441091904     2.301819e-04                           (NR   MAcro)
WARNING : negative HOMO - LUMO gap : (op =  beta) -0.000174
    4     dE    -3.621955e-08     3.504592e-04                           (NR   MIcro)
    4     dE    -3.225447e-05     1.343075e-01                           (NR   MIcro)
    4     dE     8.292020e-07     1.810822e-04                           (NR   MIcro)
    4     dE     8.228353e-07     7.211748e-05                           (NR   MIcro)
    4     dE     7.970137e-07     3.579134e-04                           (NR   MIcro)
    4     dE     7.246952e-07     2.757761e-04                           (NR   MIcro)
    4     dE     7.129182e-07     2.608820e-05                           (NR   MIcro)
    4     dE     7.123654e-07     2.926566e-05                           (NR   MIcro)
    4     dE     7.152284e-07     5.957736e-05                           (NR   MIcro)
    4     dE     7.147720e-07     6.824250e-06                           (NR   MIcro)
    4     dE     7.147646e-07     5.324159e-07                           (NR   MIcro)
WARNING: 2 diagonal Hessian elements are negative!
    5      -1639.794439473868     1.703399e-04                           (NR   MAcro)
WARNING : negative HOMO - LUMO gap : (op =  beta) -0.000179
    5     dE    -1.914052e-07     9.568071e-04                           (NR   MIcro)
    5     dE     5.634089e-06     8.974636e-03                           (NR   MIcro)
    5     dE     1.807036e-06     5.913157e-04                           (NR   MIcro)
    5     dE     1.745242e-06     2.461023e-05                           (NR   MIcro)
    5     dE     1.744581e-06     2.752000e-05                           (NR   MIcro)
    5     dE     1.748237e-06     5.642980e-05                           (NR   MIcro)
    5     dE     1.747622e-06     4.591864e-06                           (NR   MIcro)
    5     dE     1.747616e-06     1.516443e-06                           (NR   MIcro)
    5     dE     1.747609e-06     6.015651e-06                           (NR   MIcro)
    5     dE     1.747534e-06     3.712085e-06                           (NR   MIcro)
    5     dE     1.747531e-06     6.773289e-07                           (NR   MIcro)
WARNING: 2 diagonal Hessian elements are negative!
    6      -1639.794435597811     4.693040e-04                           (NR   MAcro)
WARNING : negative HOMO - LUMO gap : (op =  beta) -0.000193
    6     dE    -1.524805e-07     5.020467e-04                           (NR   MIcro)
    6     dE    -1.205325e-06     2.392273e-03                           (NR   MIcro)
    6     dE    -4.720503e-06     2.369566e-03                           (NR   MIcro)
    6     dE    -6.053031e-06     1.713025e-04                           (NR   MIcro)
    6     dE    -6.375623e-06     1.146567e-03                           (NR   MIcro)
    6     dE    -5.526238e-06     3.485830e-04                           (NR   MIcro)
    6     dE    -5.551334e-06     5.815277e-05                           (NR   MIcro)
    6     dE    -5.552334e-06     2.980319e-05                           (NR   MIcro)
    6     dE    -5.557375e-06     1.408607e-04                           (NR   MIcro)
    6     dE    -5.577092e-06     3.542338e-05                           (NR   MIcro)
    6     dE    -5.577352e-06     6.500026e-06                           (NR   MIcro)
    6     dE    -5.577361e-06     6.291698e-07                           (NR   MIcro)
WARNING: 2 diagonal Hessian elements are negative!
    7      -1639.794442874928     2.378762e-03                     0.691 (TRAH MAcro)   No
WARNING : negative HOMO - LUMO gap : (op =  beta) -0.000093
    7     dE    -6.336017e-07     1.685701e-03    -6.3360e-07      0.000 (TRAH MIcro)
    7     dE    -9.572468e-07     3.888073e-04    -9.5725e-07      0.001 (TRAH MIcro)
    7     dE    -9.908321e-07     5.331650e-04    -9.9083e-07      0.002 (TRAH MIcro)
    7     dE    -1.521702e-04     2.519748e-02    -8.7045e-04      0.402 (TRAH MIcro)
    7     dE    -8.176605e-04     9.350525e-03    -1.6742e-03      0.691 (TRAH MIcro)
    7     dE    -8.120834e-04     8.869755e-03    -1.6854e-03      0.687 (TRAH MIcro)
    7     dE    -8.555393e-04     7.238146e-03    -1.7574e-03      0.691 (TRAH MIcro)
    7     dE    -8.746308e-04     1.541812e-03    -1.7995e-03      0.691 (TRAH MIcro)
    7     dE    -8.749920e-04     1.160762e-03    -1.8003e-03      0.691 (TRAH MIcro)
    7     dE    -8.751759e-04     1.328573e-03    -1.8008e-03      0.691 (TRAH MIcro)
    7     dE    -8.779757e-04     1.032276e-03    -1.8076e-03      0.691 (TRAH MIcro)
    7     dE    -8.782961e-04     3.265898e-04    -1.8084e-03      0.691 (TRAH MIcro)
    7     dE    -8.784782e-04     8.969303e-04    -1.8089e-03      0.691 (TRAH MIcro)
    7     dE    -1.486283e-06     6.029974e-05    -4.9898e-03      0.007 (TRAH MIcro)
WARNING: 2 diagonal Hessian elements are negative!
    8      -1639.794444288450     6.597186e-05                           (NR   MAcro)
WARNING : negative HOMO - LUMO gap : (op =  beta) -0.000155
    8     dE    -1.019368e-07     8.141372e-04                           (NR   MIcro)
    8     dE     1.827615e-07     2.949570e-04                           (NR   MIcro)
    8     dE     1.698921e-07     1.264354e-04                           (NR   MIcro)
    8     dE     1.657826e-07     3.854389e-05                           (NR   MIcro)
    8     dE     1.635990e-07     9.009546e-05                           (NR   MIcro)
    8     dE     1.351171e-07     2.309128e-04                           (NR   MIcro)
    8     dE     1.217265e-07     3.350362e-05                           (NR   MIcro)
    8     dE     1.214841e-07     9.265088e-06                           (NR   MIcro)
    8     dE     1.186600e-07     2.345125e-04                           (NR   MIcro)
    8     dE     1.220877e-07     5.180305e-06                           (NR   MIcro)
    8     dE     1.220811e-07     4.716024e-07                           (NR   MIcro)
WARNING: 2 diagonal Hessian elements are negative!
    9      -1639.794443996572     4.358069e-05                           (NR   MAcro)
WARNING : negative HOMO - LUMO gap : (op =  beta) -0.000157
    9     dE    -4.089791e-07     2.666032e-03                           (NR   MIcro)
    9     dE     2.027994e-07     2.372414e-04                           (NR   MIcro)
    9     dE     1.950556e-07     5.775454e-05                           (NR   MIcro)
    9     dE     1.943839e-07     2.000134e-06                           (NR   MIcro)
    9     dE     1.943815e-07     1.075827e-06                           (NR   MIcro)
    9     dE     1.943920e-07     3.250680e-06                           (NR   MIcro)
    9     dE     1.943896e-07     3.639263e-07                           (NR   MIcro)
WARNING: 2 diagonal Hessian elements are negative!
   10      -1639.794443590327     4.974750e-05                           (NR   MAcro)
WARNING : negative HOMO - LUMO gap : (op =  beta) -0.000159
   10     dE    -4.324280e-07     2.563539e-03                           (NR   MIcro)
   10     dE     2.607401e-07     3.027609e-04                           (NR   MIcro)
   10     dE     2.482234e-07     7.036351e-05                           (NR   MIcro)
   10     dE     2.472498e-07     2.525286e-06                           (NR   MIcro)
   10     dE     2.472464e-07     1.120493e-06                           (NR   MIcro)
   10     dE     2.472636e-07     7.876590e-06                           (NR   MIcro)
   10     dE     2.472564e-07     1.019240e-06                           (NR   MIcro)
   10     dE     2.472562e-07     1.150604e-07                           (NR   MIcro)
WARNING: 2 diagonal Hessian elements are negative!
   11      -1639.794443072099     5.900837e-05                           (NR   MAcro)
WARNING : negative HOMO - LUMO gap : (op =  beta) -0.000162
   11     dE    -3.833322e-07     2.133934e-03                           (NR   MIcro)
   11     dE     3.508965e-07     4.190170e-04                           (NR   MIcro)
   11     dE     3.273341e-07     9.121793e-05                           (NR   MIcro)
   11     dE     3.257283e-07     3.296450e-06                           (NR   MIcro)
   11     dE     3.257228e-07     1.324907e-06                           (NR   MIcro)
   11     dE     3.257548e-07     9.623309e-06                           (NR   MIcro)
   11     dE     3.257406e-07     9.966326e-07                           (NR   MIcro)
WARNING: 2 diagonal Hessian elements are negative!
   12      -1639.794442386616     7.279473e-05                           (NR   MAcro)
WARNING : negative HOMO - LUMO gap : (op =  beta) -0.000166
   12     dE    -3.363335e-07     1.768097e-03                           (NR   MIcro)
   12     dE     5.087973e-07     6.339713e-04                           (NR   MIcro)
   12     dE     4.566786e-07     1.265896e-04                           (NR   MIcro)
   12     dE     4.536563e-07     5.109828e-06                           (NR   MIcro)
   12     dE     4.536458e-07     2.122811e-06                           (NR   MIcro)
   12     dE     4.536322e-07     8.626312e-06                           (NR   MIcro)
   12     dE     4.537097e-07     6.222208e-06                           (NR   MIcro)
   12     dE     4.536954e-07     2.657717e-06                           (NR   MIcro)
   12     dE     4.536128e-07     1.230895e-05                           (NR   MIcro)
   12     dE     4.535707e-07     2.401101e-06                           (NR   MIcro)
   12     dE     4.535698e-07     1.990320e-07                           (NR   MIcro)
WARNING: 2 diagonal Hessian elements are negative!
   13      -1639.794441426279     9.633062e-05                           (NR   MAcro)
WARNING : negative HOMO - LUMO gap : (op =  beta) -0.000171
   13     dE    -2.855198e-07     1.433646e-03                           (NR   MIcro)
   13     dE     8.643272e-07     1.150675e-03                           (NR   MIcro)
   13     dE     7.066504e-07     1.976020e-04                           (NR   MIcro)
   13     dE     6.994627e-07     7.528585e-06                           (NR   MIcro)
   13     dE     6.994446e-07     8.968264e-07                           (NR   MIcro)
WARNING: 2 diagonal Hessian elements are negative!
   14      -1639.794439929499     1.471911e-04                           (NR   MAcro)
WARNING : negative HOMO - LUMO gap : (op =  beta) -0.000177
   14     dE    -2.210082e-07     1.083250e-03                           (NR   MIcro)
   14     dE     2.660736e-06     3.970474e-03                           (NR   MIcro)
   14     dE     1.419015e-06     4.196452e-04                           (NR   MIcro)
   14     dE     1.387614e-06     1.744473e-05                           (NR   MIcro)
   14     dE     1.387513e-06     2.668530e-06                           (NR   MIcro)
   14     dE     1.387464e-06     1.588818e-05                           (NR   MIcro)
   14     dE     1.387589e-06     3.096931e-06                           (NR   MIcro)
   14     dE     1.387587e-06     4.682751e-07                           (NR   MIcro)
WARNING: 2 diagonal Hessian elements are negative!
   15      -1639.794436883076     3.361797e-04                           (NR   MAcro)
WARNING : negative HOMO - LUMO gap : (op =  beta) -0.000189
   15     dE    -1.533972e-07     6.379841e-04                           (NR   MIcro)
   15     dE    -1.855679e-06     3.424340e-03                           (NR   MIcro)
   15     dE    -5.625027e-05     2.256361e-02                           (NR   MIcro)
   15     dE     8.905410e-05     1.576417e-03                           (NR   MIcro)
   15     dE     8.767065e-05     7.954912e-04                           (NR   MIcro)
   15     dE     1.031926e-04     1.021444e-02                           (NR   MIcro)
   15     dE     9.376698e-05     5.069572e-04                           (NR   MIcro)
   15     dE     9.372129e-05     9.688173e-05                           (NR   MIcro)
   15     dE     9.371569e-05     1.041929e-04                           (NR   MIcro)
   15     dE     9.359933e-05     4.054547e-04                           (NR   MIcro)
   15     dE     9.356123e-05     8.717670e-05                           (NR   MIcro)
   15     dE     9.355952e-05     6.751278e-06                           (NR   MIcro)
   15     dE     9.355950e-05     1.550695e-06                           (NR   MIcro)
   15     dE     9.355946e-05     9.637730e-06                           (NR   MIcro)
   15     dE     9.355933e-05     2.775887e-06                           (NR   MIcro)
WARNING: 2 diagonal Hessian elements are negative!
   16      -1639.773491412123     3.527105e-01                     0.829 (TRAH MAcro)   No
WARNING : negative HOMO - LUMO gap : (op =  beta) -0.011375
   16     dE    -1.424063e-02     2.363564e-01    -1.4217e-02      0.040 (TRAH MIcro)
   16     dE    -2.085795e-02     1.603509e-02    -2.0684e-02      0.092 (TRAH MIcro)
   16     dE    -2.087204e-02     1.303204e-02    -2.0702e-02      0.091 (TRAH MIcro)
   16     dE    -2.087694e-02     1.092179e-02    -2.0710e-02      0.090 (TRAH MIcro)
   16     dE    -2.089140e-02     7.488111e-03    -2.0721e-02      0.091 (TRAH MIcro)
WARNING: 2 diagonal Hessian elements are negative!
   17      -1639.794362427787     9.342927e-03                     0.995 (TRAH MAcro)   No
WARNING : negative HOMO - LUMO gap : (op =  beta) -0.000666
   17     dE    -8.912835e-07     1.225773e-02    -8.9128e-07      0.001 (TRAH MIcro)
   17     dE    -7.408924e-06     1.035964e-02    -7.4089e-06      0.002 (TRAH MIcro)
   17     dE    -1.116474e-05     9.924463e-03    -1.1164e-05      0.005 (TRAH MIcro)
   17     dE    -5.791370e-05     6.085049e-03    -5.7566e-05      0.078 (TRAH MIcro)
   17     dE    -6.597416e-05     7.779047e-04    -6.5442e-05      0.090 (TRAH MIcro)
WARNING: 2 diagonal Hessian elements are negative!
   18      -1639.794430471422     1.841837e-03                     1.194 (TRAH MAcro)   No
WARNING : negative HOMO - LUMO gap : (op =  beta) -0.000154
   18     dE    -8.129968e-08     4.237761e-03    -8.1338e-08      0.000 (TRAH MIcro)
   18     dE    -5.549403e-07     3.924209e-04    -5.5494e-07      0.001 (TRAH MIcro)
   18     dE    -7.669657e-07     1.007553e-03    -7.6694e-07      0.006 (TRAH MIcro)
   18     dE    -1.405180e-06     1.261811e-03    -1.4045e-06      0.023 (TRAH MIcro)
   18     dE    -2.018886e-06     3.638075e-04    -2.0158e-06      0.039 (TRAH MIcro)
   18     dE    -2.051722e-06     1.492685e-04    -2.0485e-06      0.040 (TRAH MIcro)
WARNING: 2 diagonal Hessian elements are negative!
   19      -1639.794434075633     2.537218e-04                           (NR   MAcro)
WARNING : negative HOMO - LUMO gap : (op =  beta) -0.000209
   19     dE    -1.829699e-07     8.418176e-04                           (NR   MIcro)
   19     dE    -1.163921e-06     2.111361e-03                           (NR   MIcro)
   19     dE    -2.618395e-06     1.460301e-03                           (NR   MIcro)
   19     dE    -3.018495e-06     2.266786e-04                           (NR   MIcro)
   19     dE    -3.114019e-06     5.737364e-04                           (NR   MIcro)
   19     dE    -2.614229e-06     3.748499e-04                           (NR   MIcro)
   19     dE    -2.643987e-06     8.200506e-05                           (NR   MIcro)
   19     dE    -2.645637e-06     1.888454e-05                           (NR   MIcro)
   19     dE    -2.648263e-06     9.488099e-05                           (NR   MIcro)
   19     dE    -2.662301e-06     5.466090e-05                           (NR   MIcro)
   19     dE    -2.662950e-06     2.292550e-06                           (NR   MIcro)
   19     dE    -2.662951e-06     3.419109e-07                           (NR   MIcro)
WARNING: 2 diagonal Hessian elements are negative!
   20      -1639.794439019784     5.638318e-04                           (NR   MAcro)
WARNING : negative HOMO - LUMO gap : (op =  beta) -0.000170
   20     dE    -1.211283e-07     3.420834e-04                           (NR   MIcro)
   20     dE    -3.942758e-07     1.409741e-03                           (NR   MIcro)
   20     dE     2.971238e-06     2.233320e-03                           (NR   MIcro)
   20     dE     2.203709e-06     7.405427e-05                           (NR   MIcro)
   20     dE     2.198865e-06     6.417879e-05                           (NR   MIcro)
   20     dE     2.493091e-06     1.964990e-03                           (NR   MIcro)
   20     dE     2.261708e-06     8.149980e-05                           (NR   MIcro)
   20     dE     2.231468e-06     3.100590e-04                           (NR   MIcro)
   20     dE     2.151027e-06     2.577352e-04                           (NR   MIcro)
   20     dE     2.138717e-06     1.661345e-05                           (NR   MIcro)
   20     dE     2.138648e-06     3.078349e-06                           (NR   MIcro)
WARNING: 2 diagonal Hessian elements are negative!
   21      -1639.794434063347     6.770746e-04                           (NR   MAcro)
WARNING : negative HOMO - LUMO gap : (op =  beta) -0.000196
   21     dE    -1.842960e-07     3.958570e-04                           (NR   MIcro)
   21     dE    -9.472703e-07     1.900053e-03                           (NR   MIcro)
   21     dE    -2.489836e-06     1.609324e-03                           (NR   MIcro)
   21     dE    -3.084800e-06     9.947029e-05                           (NR   MIcro)
   21     dE    -3.133707e-06     3.732302e-04                           (NR   MIcro)
   21     dE    -2.917720e-06     3.547270e-04                           (NR   MIcro)
   21     dE    -2.938795e-06     5.715823e-05                           (NR   MIcro)
   21     dE    -2.939761e-06     2.377188e-05                           (NR   MIcro)
   21     dE    -2.944773e-06     1.414572e-04                           (NR   MIcro)
   21     dE    -2.958940e-06     8.059540e-05                           (NR   MIcro)
   21     dE    -2.959969e-06     5.427095e-06                           (NR   MIcro)
   21     dE    -2.959978e-06     7.687035e-07                           (NR   MIcro)
WARNING: 2 diagonal Hessian elements are negative!
   22      -1639.794439324340     6.026716e-04                           (NR   MAcro)
WARNING : negative HOMO - LUMO gap : (op =  beta) -0.000167
   22     dE    -1.236921e-07     3.153624e-04                           (NR   MIcro)
   22     dE    -3.442880e-07     1.254337e-03                           (NR   MIcro)
   22     dE     2.492985e-06     2.083303e-03                           (NR   MIcro)
   22     dE     1.833391e-06     6.525970e-05                           (NR   MIcro)
   22     dE     1.830799e-06     3.563040e-05                           (NR   MIcro)
   22     dE     1.802608e-06     3.681700e-04                           (NR   MIcro)
   22     dE     1.931858e-06     1.684007e-04                           (NR   MIcro)
   22     dE     1.871841e-06     3.285781e-04                           (NR   MIcro)
   22     dE     1.792566e-06     1.073463e-04                           (NR   MIcro)
   22     dE     1.790717e-06     1.321519e-05                           (NR   MIcro)
   22     dE     1.790674e-06     1.499773e-06                           (NR   MIcro)
WARNING: 2 diagonal Hessian elements are negative!
   23      -1639.794435207144     5.210726e-04                           (NR   MAcro)
WARNING : negative HOMO - LUMO gap : (op =  beta) -0.000194
   23     dE    -1.592738e-07     4.732658e-04                           (NR   MIcro)
   23     dE    -1.142007e-06     2.252739e-03                           (NR   MIcro)
   23     dE    -3.803196e-06     2.050503e-03                           (NR   MIcro)
   23     dE    -4.762867e-06     1.151874e-04                           (NR   MIcro)
   23     dE    -4.785153e-06     1.875342e-04                           (NR   MIcro)
   23     dE    -4.641256e-06     3.773849e-04                           (NR   MIcro)
   23     dE    -4.666125e-06     5.160150e-05                           (NR   MIcro)
   23     dE    -4.666685e-06     1.424049e-05                           (NR   MIcro)
   23     dE    -4.667474e-06     5.663164e-05                           (NR   MIcro)
   23     dE    -4.674299e-06     5.048097e-05                           (NR   MIcro)
   23     dE    -4.674728e-06     6.603091e-06                           (NR   MIcro)
   23     dE    -4.674740e-06     6.242557e-07                           (NR   MIcro)
WARNING: 2 diagonal Hessian elements are negative!
   24      -1639.794442271121     1.595684e-03                     1.433 (TRAH MAcro)   No
WARNING : negative HOMO - LUMO gap : (op =  beta) -0.000122
   24     dE    -2.832930e-07     1.164584e-03    -2.8330e-07      0.000 (TRAH MIcro)
   24     dE    -4.518767e-07     2.066818e-04    -4.5188e-07      0.001 (TRAH MIcro)
   24     dE    -5.326576e-07     7.378476e-04    -5.3265e-07      0.003 (TRAH MIcro)
   24     dE    -2.467404e-03     4.854680e-02    -1.1829e-03      1.433 (TRAH MIcro)
   24     dE    -2.963780e-03     5.639592e-03    -1.4248e-03      1.433 (TRAH MIcro)
   24     dE    -2.967095e-03     5.032821e-03    -1.4265e-03      1.433 (TRAH MIcro)
   24     dE    -2.975621e-03     5.435148e-03    -1.4308e-03      1.433 (TRAH MIcro)
   24     dE    -2.996169e-03     3.209537e-03    -1.4413e-03      1.433 (TRAH MIcro)
   24     dE    -2.997824e-03     1.574442e-03    -1.4422e-03      1.433 (TRAH MIcro)
   24     dE    -2.997962e-03     1.491506e-03    -1.4422e-03      1.433 (TRAH MIcro)
   24     dE    -2.999621e-03     1.805927e-03    -1.4432e-03      1.433 (TRAH MIcro)
   24     dE    -3.000333e-03     3.338349e-04    -1.4435e-03      1.433 (TRAH MIcro)
   24     dE    -3.000365e-03     2.870961e-05    -1.4436e-03      1.433 (TRAH MIcro)
 ---------------------------------
          TRAH Step control 
 ---------------------------------
  predicted energy change = -0.003000
  actual energy  change   = 0.007020
  energy change ratio     = -2.339602
  old trust radius        = 1.433272
  new trust radius        = 1.003291
  reject step?            =  1
   25      -1639.794442271121     5.210726e-04                     1.003 (TRAH MAcro)  Yes
WARNING: 2 diagonal Hessian elements are negative!
   26      -1639.794442271122     1.595684e-03                     1.003 (TRAH MAcro)   No
WARNING : negative HOMO - LUMO gap : (op =  beta) -0.000122
   26     dE    -2.827809e-07     1.127553e-03    -2.8279e-07      0.000 (TRAH MIcro)
   26     dE    -4.514998e-07     2.328237e-04    -4.5150e-07      0.001 (TRAH MIcro)
   26     dE    -5.340618e-07     7.465665e-04    -5.3406e-07      0.004 (TRAH MIcro)
   26     dE    -4.327428e-04     1.990212e-02    -1.2074e-03      0.588 (TRAH MIcro)
   26     dE    -7.583295e-04     3.162610e-03    -1.4417e-03      0.716 (TRAH MIcro)
   26     dE    -7.611296e-04     2.667672e-03    -1.4432e-03      0.717 (TRAH MIcro)
   26     dE    -7.873697e-04     2.892852e-03    -1.4476e-03      0.729 (TRAH MIcro)
   26     dE    -8.424601e-04     1.181932e-03    -1.4566e-03      0.752 (TRAH MIcro)
   26     dE    -8.448836e-04     7.624848e-04    -1.4569e-03      0.753 (TRAH MIcro)
   26     dE    -8.459565e-04     8.675922e-04    -1.4570e-03      0.753 (TRAH MIcro)
   26     dE    -8.633250e-04     6.380899e-04    -1.4581e-03      0.761 (TRAH MIcro)
   26     dE    -8.661467e-04     1.401241e-04    -1.4583e-03      0.762 (TRAH MIcro)
 ---------------------------------
          TRAH Step control 
 ---------------------------------
  predicted energy change = -0.000866
  actual energy  change   = 0.000869
  energy change ratio     = -1.002771
  old trust radius        = 1.003291
  new trust radius        = 0.702303
  reject step?            =  1
   27      -1639.794442271122     5.210726e-04                     0.702 (TRAH MAcro)  Yes
WARNING: 2 diagonal Hessian elements are negative!
   28      -1639.794442271121     1.595684e-03                     0.702 (TRAH MAcro)   No
WARNING : negative HOMO - LUMO gap : (op =  beta) -0.000122
   28     dE    -2.829541e-07     1.142967e-03    -2.8296e-07      0.000 (TRAH MIcro)
   28     dE    -4.517266e-07     2.112825e-04    -4.5173e-07      0.001 (TRAH MIcro)
   28     dE    -5.332149e-07     7.451703e-04    -5.3321e-07      0.004 (TRAH MIcro)
   28     dE    -4.333779e-04     2.006079e-02    -1.2075e-03      0.588 (TRAH MIcro)
   28     dE    -7.299535e-04     2.732673e-03    -1.4430e-03      0.702 (TRAH MIcro)
   28     dE    -7.307270e-04     2.522418e-03    -1.4446e-03      0.702 (TRAH MIcro)
   28     dE    -7.327189e-04     2.605981e-03    -1.4490e-03      0.702 (TRAH MIcro)
   28     dE    -7.371789e-04     1.056625e-03    -1.4590e-03      0.702 (TRAH MIcro)
   28     dE    -7.373422e-04     7.387201e-04    -1.4593e-03      0.702 (TRAH MIcro)
   28     dE    -7.373766e-04     7.351952e-04    -1.4594e-03      0.702 (TRAH MIcro)
   28     dE    -7.379003e-04     5.513396e-04    -1.4608e-03      0.702 (TRAH MIcro)
   28     dE    -7.379805e-04     1.247144e-04    -1.4610e-03      0.702 (TRAH MIcro)
 ---------------------------------
          TRAH Step control 
 ---------------------------------
  predicted energy change = -0.000738
  actual energy  change   = 0.000646
  energy change ratio     = -0.874736
  old trust radius        = 0.702303
  new trust radius        = 0.491612
  reject step?            =  1
   29      -1639.794442271121     5.210726e-04                     0.492 (TRAH MAcro)  Yes
WARNING: 2 diagonal Hessian elements are negative!
   30      -1639.794442271121     1.595684e-03                     0.492 (TRAH MAcro)   No
WARNING : negative HOMO - LUMO gap : (op =  beta) -0.000122
   30     dE    -2.827986e-07     1.130557e-03    -2.8280e-07      0.000 (TRAH MIcro)
   30     dE    -4.516175e-07     2.268136e-04    -4.5162e-07      0.001 (TRAH MIcro)
   30     dE    -5.328272e-07     7.457548e-04    -5.3282e-07      0.003 (TRAH MIcro)
   30     dE    -3.066373e-04     1.667317e-02    -1.2146e-03      0.492 (TRAH MIcro)
   30     dE    -3.484788e-04     2.290080e-03    -1.4581e-03      0.480 (TRAH MIcro)
   30     dE    -3.497354e-04     1.939288e-03    -1.4597e-03      0.481 (TRAH MIcro)
   30     dE    -3.614830e-04     1.912830e-03    -1.4642e-03      0.488 (TRAH MIcro)
   30     dE    -3.685245e-04     6.344797e-04    -1.4732e-03      0.492 (TRAH MIcro)
   30     dE    -3.685820e-04     4.867160e-04    -1.4734e-03      0.492 (TRAH MIcro)
   30     dE    -3.686648e-04     7.514323e-04    -1.4739e-03      0.492 (TRAH MIcro)
   30     dE    -3.689269e-04     3.110668e-04    -1.4755e-03      0.492 (TRAH MIcro)
   30     dE    -3.689519e-04     3.756731e-05    -1.4756e-03      0.492 (TRAH MIcro)
 ---------------------------------
          TRAH Step control 
 ---------------------------------
  predicted energy change = -0.000369
  actual energy  change   = 0.000170
  energy change ratio     = -0.461079
  old trust radius        = 0.491612
  new trust radius        = 0.344129
  reject step?            =  1
   31      -1639.794442271121     5.210726e-04                     0.344 (TRAH MAcro)  Yes
WARNING: 2 diagonal Hessian elements are negative!
   32      -1639.794442271120     1.595684e-03                     0.344 (TRAH MAcro)   No
WARNING : negative HOMO - LUMO gap : (op =  beta) -0.000122
   32     dE    -2.827910e-07     1.128873e-03    -2.8279e-07      0.000 (TRAH MIcro)
   32     dE    -4.515764e-07     2.162857e-04    -4.5158e-07      0.001 (TRAH MIcro)
   32     dE    -5.330856e-07     7.724762e-04    -5.3308e-07      0.004 (TRAH MIcro)
   32     dE    -1.560168e-04     1.224896e-02    -1.2390e-03      0.344 (TRAH MIcro)
   32     dE    -6.829865e-05     7.885663e-04    -1.5320e-03      0.202 (TRAH MIcro)
   32     dE    -6.844830e-05     6.434046e-04    -1.5333e-03      0.203 (TRAH MIcro)
   32     dE    -6.937994e-05     6.527088e-04    -1.5348e-03      0.204 (TRAH MIcro)
   32     dE    -7.232531e-05     2.770238e-04    -1.5398e-03      0.208 (TRAH MIcro)
   32     dE    -7.250796e-05     1.210139e-04    -1.5401e-03      0.208 (TRAH MIcro)
 ---------------------------------
          TRAH Step control 
 ---------------------------------
  predicted energy change = -0.000073
  actual energy  change   = 0.000002
  energy change ratio     = -0.021424
  old trust radius        = 0.344129
  new trust radius        = 0.240890
  reject step?            =  1
   33      -1639.794442271120     5.210726e-04                     0.241 (TRAH MAcro)  Yes
WARNING: 2 diagonal Hessian elements are negative!
   34      -1639.794442271120     1.595684e-03                     0.241 (TRAH MAcro)   No
WARNING : negative HOMO - LUMO gap : (op =  beta) -0.000122
   34     dE    -2.828161e-07     1.128344e-03    -2.8282e-07      0.000 (TRAH MIcro)
   34     dE    -4.513968e-07     2.263198e-04    -4.5140e-07      0.001 (TRAH MIcro)
   34     dE    -5.315844e-07     7.571277e-04    -5.3158e-07      0.003 (TRAH MIcro)
   34     dE    -4.237006e-05     5.675155e-03    -1.3168e-03      0.169 (TRAH MIcro)
   34     dE    -6.827611e-05     7.522706e-04    -1.5321e-03      0.202 (TRAH MIcro)
   34     dE    -6.843390e-05     6.218670e-04    -1.5333e-03      0.203 (TRAH MIcro)
   34     dE    -6.941564e-05     6.369942e-04    -1.5349e-03      0.204 (TRAH MIcro)
   34     dE    -7.243347e-05     2.765707e-04    -1.5399e-03      0.208 (TRAH MIcro)
   34     dE    -7.262321e-05     1.174252e-04    -1.5402e-03      0.209 (TRAH MIcro)
 ---------------------------------
          TRAH Step control 
 ---------------------------------
  predicted energy change = -0.000073
  actual energy  change   = 0.000002
  energy change ratio     = -0.021896
  old trust radius        = 0.240890
  new trust radius        = 0.168623
  reject step?            =  1
   35      -1639.794442271120     5.210726e-04                     0.169 (TRAH MAcro)  Yes
WARNING: 2 diagonal Hessian elements are negative!
   36      -1639.794442271120     1.595684e-03                     0.169 (TRAH MAcro)   No
WARNING : negative HOMO - LUMO gap : (op =  beta) -0.000122
   36     dE    -2.829318e-07     1.139783e-03    -2.8293e-07      0.000 (TRAH MIcro)
   36     dE    -4.517284e-07     2.100959e-04    -4.5173e-07      0.001 (TRAH MIcro)
   36     dE    -5.341960e-07     7.574947e-04    -5.3419e-07      0.004 (TRAH MIcro)
   36     dE    -4.219287e-05     5.697806e-03    -1.3164e-03      0.169 (TRAH MIcro)
   36     dE    -4.896735e-05     6.356118e-04    -1.5569e-03      0.169 (TRAH MIcro)
   36     dE    -4.900364e-05     5.419646e-04    -1.5582e-03      0.169 (TRAH MIcro)
   36     dE    -4.904600e-05     5.208190e-04    -1.5605e-03      0.169 (TRAH MIcro)
   36     dE    -4.917354e-05     1.892473e-04    -1.5670e-03      0.169 (TRAH MIcro)
   36     dE    -4.918043e-05     8.375096e-05    -1.5674e-03      0.169 (TRAH MIcro)
WARNING: 2 diagonal Hessian elements are negative!
   37      -1639.794444059193     3.275052e-03                     0.118 (TRAH MAcro)   No
WARNING : negative HOMO - LUMO gap : (op =  beta) -0.000058
   37     dE    -1.195632e-06     3.384407e-03    -1.1956e-06      0.000 (TRAH MIcro)
   37     dE    -1.797086e-06     1.622528e-04    -1.7971e-06      0.001 (TRAH MIcro)
WARNING: 2 diagonal Hessian elements are negative!
   38      -1639.794445855931     1.619891e-04                           (NR   MAcro)
WARNING : negative HOMO - LUMO gap : (op =  beta) -0.000145
   38     dE    -4.453744e-09     1.077474e-04                           (NR   MIcro)
   38     dE    -2.240386e-08     5.011134e-04                           (NR   MIcro)
   38     dE     4.849754e-07     8.687680e-04                           (NR   MIcro)
   38     dE     2.672602e-07     5.791845e-04                           (NR   MIcro)
   38     dE    -1.617665e-07     7.357635e-04                           (NR   MIcro)
   38     dE    -2.070600e-07     1.684623e-04                           (NR   MIcro)
   38     dE    -2.097126e-07     1.850568e-05                           (NR   MIcro)
   38     dE    -2.097363e-07     2.766385e-06                           (NR   MIcro)
   38     dE    -2.096418e-07     4.842775e-05                           (NR   MIcro)
   38     dE    -2.096834e-07     2.866824e-06                           (NR   MIcro)
   38     dE    -2.096840e-07     5.105236e-07                           (NR   MIcro)
WARNING: 2 diagonal Hessian elements are negative!
   39      -1639.794446063979     9.542893e-06                           (NR   MAcro)
WARNING : negative HOMO - LUMO gap : (op =  beta) -0.000145
   39     dE    -6.595311e-08     1.881275e-03                           (NR   MIcro)
   39     dE     7.692896e-09     1.474715e-05                           (NR   MIcro)
   39     dE     7.654341e-09     7.660786e-06                           (NR   MIcro)
   39     dE     7.640851e-09     1.660417e-06                           (NR   MIcro)
   39     dE     7.575263e-09     1.274966e-05                           (NR   MIcro)
   39     dE     7.452809e-09     7.887713e-06                           (NR   MIcro)
   39     dE     7.437043e-09     2.052628e-06                           (NR   MIcro)
   39     dE     7.541009e-09     2.766015e-05                           (NR   MIcro)
   39     dE     7.467426e-09     1.043117e-06                           (NR   MIcro)
   39     dE     7.467205e-09     1.728130e-07                           (NR   MIcro)
WARNING: 2 diagonal Hessian elements are negative!
   40      -1639.794446048407     8.239444e-06                           (NR   MAcro)
WARNING : negative HOMO - LUMO gap : (op =  beta) -0.000145
   40     dE     6.344675e-08     1.516985e-03                           (NR   MIcro)
   40     dE     8.686883e-09     1.389492e-05                           (NR   MIcro)
   40     dE     8.656129e-09     6.745094e-06                           (NR   MIcro)
   40     dE     8.646982e-09     3.144741e-07                           (NR   MIcro)
WARNING: 2 diagonal Hessian elements are negative!
   41      -1639.794446030553     8.832274e-06                           (NR   MAcro)
WARNING : negative HOMO - LUMO gap : (op =  beta) -0.000145
   41     dE     7.341361e-08     1.643176e-03                           (NR   MIcro)
   41     dE     9.871261e-09     1.487367e-05                           (NR   MIcro)
   41     dE     9.835423e-09     7.255312e-06                           (NR   MIcro)
   41     dE     9.824720e-09     4.063203e-07                           (NR   MIcro)
WARNING: 2 diagonal Hessian elements are negative!
   42      -1639.794446010266     9.428498e-06                           (NR   MAcro)
WARNING : negative HOMO - LUMO gap : (op =  beta) -0.000145
   42     dE     8.515620e-08     1.790672e-03                           (NR   MIcro)
   42     dE     1.122592e-08     1.614625e-05                           (NR   MIcro)
   42     dE     1.118401e-08     7.826921e-06                           (NR   MIcro)
   42     dE     1.117145e-08     5.087336e-07                           (NR   MIcro)
WARNING: 2 diagonal Hessian elements are negative!
   43      -1639.794445987194     1.007097e-05                           (NR   MAcro)
WARNING : negative HOMO - LUMO gap : (op =  beta) -0.000145
   43     dE     9.956982e-08     1.966551e-03                           (NR   MIcro)
   43     dE     1.277821e-08     1.763106e-05                           (NR   MIcro)
   43     dE     1.272879e-08     8.467473e-06                           (NR   MIcro)
   43     dE     1.271401e-08     6.471562e-07                           (NR   MIcro)
WARNING: 2 diagonal Hessian elements are negative!
   44      -1639.794445960933     1.076707e-05                           (NR   MAcro)
WARNING : negative HOMO - LUMO gap : (op =  beta) -0.000146
   44     dE     1.171600e-07     2.172655e-03                           (NR   MIcro)
   44     dE     1.456014e-08     1.928341e-05                           (NR   MIcro)
   44     dE     1.450164e-08     9.175200e-06                           (NR   MIcro)
   44     dE     1.448427e-08     8.382682e-07                           (NR   MIcro)
WARNING: 2 diagonal Hessian elements are negative!
   45      -1639.794445931010     1.152516e-05                           (NR   MAcro)
WARNING : negative HOMO - LUMO gap : (op =  beta) -0.000146
   45     dE     1.387690e-07     2.415118e-03                           (NR   MIcro)
   45     dE     1.660996e-08     2.107278e-05                           (NR   MIcro)
   45     dE     1.654061e-08     9.955406e-06                           (NR   MIcro)
   45     dE     1.652030e-08     1.093372e-06                           (NR   MIcro)
   45     dE     1.651977e-08     9.138748e-07                           (NR   MIcro)
WARNING: 2 diagonal Hessian elements are negative!
   46      -1639.794445896875     1.222375e-05                           (NR   MAcro)
WARNING : negative HOMO - LUMO gap : (op =  beta) -0.000146
   46     dE     1.787754e-07     2.950052e-03                           (NR   MIcro)
   46     dE     1.899394e-08     2.623426e-05                           (NR   MIcro)
   46     dE     1.889365e-08     1.100118e-05                           (NR   MIcro)
   46     dE     1.886806e-08     1.204226e-06                           (NR   MIcro)
   46     dE     1.886732e-08     1.224236e-06                           (NR   MIcro)
   46     dE     1.887349e-08     2.607794e-06                           (NR   MIcro)
   46     dE     1.887169e-08     3.537072e-07                           (NR   MIcro)
WARNING: 2 diagonal Hessian elements are negative!
   47      -1639.794445857876     1.306823e-05                           (NR   MAcro)
WARNING : negative HOMO - LUMO gap : (op =  beta) -0.000146
   47     dE     2.054088e-07     3.166310e-03                           (NR   MIcro)
   47     dE     2.172228e-08     2.778240e-05                           (NR   MIcro)
   47     dE     2.160916e-08     1.172322e-05                           (NR   MIcro)
   47     dE     2.157947e-08     6.125628e-07                           (NR   MIcro)
WARNING: 2 diagonal Hessian elements are negative!
   48      -1639.794445813267     1.411158e-05                           (NR   MAcro)
WARNING : negative HOMO - LUMO gap : (op =  beta) -0.000147
   48     dE     2.560072e-07     3.691752e-03                           (NR   MIcro)
   48     dE     2.489206e-08     2.948573e-05                           (NR   MIcro)
   48     dE     2.476260e-08     1.265077e-05                           (NR   MIcro)
   48     dE     2.472718e-08     7.719482e-07                           (NR   MIcro)
WARNING: 2 diagonal Hessian elements are negative!
   49      -1639.794445762135     1.514388e-05                           (NR   MAcro)
WARNING : negative HOMO - LUMO gap : (op =  beta) -0.000147
   49     dE     3.206782e-07     4.337807e-03                           (NR   MIcro)
   49     dE     2.859140e-08     3.252225e-05                           (NR   MIcro)
   49     dE     2.843458e-08     1.372405e-05                           (NR   MIcro)
   49     dE     2.839243e-08     9.319804e-07                           (NR   MIcro)
WARNING: 2 diagonal Hessian elements are negative!
   50      -1639.794445703405     1.627555e-05                           (NR   MAcro)
WARNING : negative HOMO - LUMO gap : (op =  beta) -0.000147
   50     dE     4.184384e-07     5.307867e-03                           (NR   MIcro)
   50     dE     3.292228e-08     3.618985e-05                           (NR   MIcro)
   50     dE     3.272925e-08     1.494549e-05                           (NR   MIcro)
   50     dE     3.267876e-08     1.121714e-06                           (NR   MIcro)
   50     dE     3.264732e-08     1.330770e-05                           (NR   MIcro)
   50     dE     3.270623e-08     3.071850e-06                           (NR   MIcro)
   50     dE     3.270287e-08     2.050156e-06                           (NR   MIcro)
   50     dE     3.267710e-08     7.569838e-06                           (NR   MIcro)
   50     dE     3.263991e-08     9.900434e-07                           (NR   MIcro)
WARNING: 2 diagonal Hessian elements are negative!
   51      -1639.794445635844     1.756324e-05                           (NR   MAcro)
WARNING : negative HOMO - LUMO gap : (op =  beta) -0.000148
   51     dE     5.866187e-07     7.024654e-03                           (NR   MIcro)
   51     dE     3.802582e-08     4.463549e-05                           (NR   MIcro)
   51     dE     3.773932e-08     1.664855e-05                           (NR   MIcro)
   51     dE     3.767813e-08     9.821520e-07                           (NR   MIcro)
WARNING: 2 diagonal Hessian elements are negative!
   52      -1639.794445557840     1.893603e-05                           (NR   MAcro)
WARNING : negative HOMO - LUMO gap : (op =  beta) -0.000148
   52     dE     8.730748e-07     9.718680e-03                           (NR   MIcro)
   52     dE     4.401981e-08     4.797919e-05                           (NR   MIcro)
   52     dE     4.368712e-08     1.811544e-05                           (NR   MIcro)
   52     dE     4.361342e-08     1.197715e-06                           (NR   MIcro)
   52     dE     4.358017e-08     1.784647e-05                           (NR   MIcro)
   52     dE     4.363573e-08     3.198316e-06                           (NR   MIcro)
   52     dE     4.363365e-08     3.695042e-07                           (NR   MIcro)
WARNING: 2 diagonal Hessian elements are negative!
   53      -1639.794445467481     2.036882e-05                           (NR   MAcro)
WARNING : negative HOMO - LUMO gap : (op =  beta) -0.000149
   53     dE     1.597100e-06     1.668212e-02                           (NR   MIcro)
   53     dE     5.122817e-08     5.828440e-05                           (NR   MIcro)
   53     dE     5.074380e-08     2.010050e-05                           (NR   MIcro)
   53     dE     5.065402e-08     1.264699e-06                           (NR   MIcro)
   53     dE     5.101470e-08     1.078646e-04                           (NR   MIcro)
   53     dE     5.068519e-08     2.039454e-06                           (NR   MIcro)
   53     dE     5.068419e-08     7.544658e-07                           (NR   MIcro)
WARNING: 2 diagonal Hessian elements are negative!
   54      -1639.794445362469     2.210094e-05                           (NR   MAcro)
WARNING : negative HOMO - LUMO gap : (op =  beta) -0.000149
   54     dE     6.158048e-06     6.019739e-02                           (NR   MIcro)
   54     dE     5.982943e-08     6.718882e-05                           (NR   MIcro)
   54     dE     5.918861e-08     2.236923e-05                           (NR   MIcro)
   54     dE     5.907775e-08     1.732501e-06                           (NR   MIcro)
   54     dE     5.898395e-08     3.620238e-05                           (NR   MIcro)
   54     dE     5.912931e-08     4.226457e-06                           (NR   MIcro)
   54     dE     5.912422e-08     9.943376e-07                           (NR   MIcro)
WARNING: 2 diagonal Hessian elements are negative!
   55      -1639.794445239901     2.399935e-05                           (NR   MAcro)
WARNING : negative HOMO - LUMO gap : (op =  beta) -0.000150
   55     dE    -4.135228e-06     3.786726e-02                           (NR   MIcro)
   55     dE     7.024372e-08     7.805441e-05                           (NR   MIcro)
   55     dE     6.938225e-08     2.488042e-05                           (NR   MIcro)
   55     dE     6.924489e-08     1.959395e-06                           (NR   MIcro)
   55     dE     6.979768e-08     1.154990e-04                           (NR   MIcro)
   55     dE     6.932522e-08     4.495283e-06                           (NR   MIcro)
   55     dE     6.931914e-08     1.887238e-06                           (NR   MIcro)
   55     dE     6.928161e-08     9.114893e-06                           (NR   MIcro)
   55     dE     6.921000e-08     2.227474e-06                           (NR   MIcro)
   55     dE     6.920897e-08     3.651058e-07                           (NR   MIcro)
WARNING: 2 diagonal Hessian elements are negative!
   56      -1639.794445096290     2.635303e-05                           (NR   MAcro)
WARNING : negative HOMO - LUMO gap : (op =  beta) -0.000151
   56     dE    -1.694868e-06     1.448428e-02                           (NR   MIcro)
   56     dE     8.293230e-08     9.160614e-05                           (NR   MIcro)
   56     dE     8.174609e-08     2.805061e-05                           (NR   MIcro)
   56     dE     8.157151e-08     1.952488e-06                           (NR   MIcro)
   56     dE     8.182944e-08     4.635495e-05                           (NR   MIcro)
   56     dE     8.164736e-08     2.962297e-06                           (NR   MIcro)
   56     dE     8.164582e-08     4.303228e-07                           (NR   MIcro)
WARNING: 2 diagonal Hessian elements are negative!
   57      -1639.794444926790     2.889596e-05                           (NR   MAcro)
WARNING : negative HOMO - LUMO gap : (op =  beta) -0.000152
   57     dE    -1.059492e-06     8.472204e-03                           (NR   MIcro)
   57     dE     9.871559e-08     1.085042e-04                           (NR   MIcro)
   57     dE     9.705668e-08     3.183640e-05                           (NR   MIcro)
   57     dE     9.683211e-08     2.353712e-06                           (NR   MIcro)
   57     dE     9.716159e-08     4.501570e-05                           (NR   MIcro)
   57     dE     9.694241e-08     2.628134e-06                           (NR   MIcro)
   57     dE     9.694082e-08     9.062667e-07                           (NR   MIcro)
WARNING: 2 diagonal Hessian elements are negative!
   58      -1639.794444725358     3.195710e-05                           (NR   MAcro)
WARNING : negative HOMO - LUMO gap : (op =  beta) -0.000153
   58     dE    -7.988191e-07     5.969812e-03                           (NR   MIcro)
   58     dE     1.186275e-07     1.303998e-04                           (NR   MIcro)
   58     dE     1.162420e-07     3.665096e-05                           (NR   MIcro)
   58     dE     1.159468e-07     2.989749e-06                           (NR   MIcro)
   58     dE     1.168897e-07     1.360284e-04                           (NR   MIcro)
   58     dE     1.161185e-07     5.936383e-06                           (NR   MIcro)
   58     dE     1.161102e-07     1.339512e-06                           (NR   MIcro)
   58     dE     1.160991e-07     5.982597e-06                           (NR   MIcro)
   58     dE     1.160418e-07     8.723925e-06                           (NR   MIcro)
   58     dE     1.160269e-07     7.030788e-07                           (NR   MIcro)
WARNING: 2 diagonal Hessian elements are negative!
   59      -1639.794444484015     3.570291e-05                           (NR   MAcro)
WARNING : negative HOMO - LUMO gap : (op =  beta) -0.000155
   59     dE    -6.528587e-07     4.567548e-03                           (NR   MIcro)
   59     dE     1.441939e-07     1.590986e-04                           (NR   MIcro)
   59     dE     1.406543e-07     4.266218e-05                           (NR   MIcro)
   59     dE     1.402566e-07     3.256716e-06                           (NR   MIcro)
   59     dE     1.407746e-07     4.841979e-05                           (NR   MIcro)
   59     dE     1.404712e-07     3.324399e-06                           (NR   MIcro)
   59     dE     1.404691e-07     7.340355e-07                           (NR   MIcro)
WARNING: 2 diagonal Hessian elements are negative!
   60      -1639.794444191480     4.008761e-05                           (NR   MAcro)
WARNING : negative HOMO - LUMO gap : (op =  beta) -0.000156
   60     dE    -5.512825e-07     3.605001e-03                           (NR   MIcro)
   60     dE     1.781346e-07     1.984304e-04                           (NR   MIcro)
   60     dE     1.726624e-07     5.071344e-05                           (NR   MIcro)
   60     dE     1.721077e-07     4.063098e-06                           (NR   MIcro)
   60     dE     1.734497e-07     1.262753e-04                           (NR   MIcro)
   60     dE     1.724297e-07     7.867822e-06                           (NR   MIcro)
   60     dE     1.724178e-07     1.271866e-06                           (NR   MIcro)
   60     dE     1.724135e-07     3.305961e-06                           (NR   MIcro)
   60     dE     1.723612e-07     6.683464e-06                           (NR   MIcro)
   60     dE     1.723527e-07     1.017071e-06                           (NR   MIcro)
   60     dE     1.723525e-07     7.481335e-08                           (NR   MIcro)
WARNING: 2 diagonal Hessian elements are negative!
   61      -1639.794443832034     4.583589e-05                           (NR   MAcro)
WARNING : negative HOMO - LUMO gap : (op =  beta) -0.000158
   61     dE    -4.787376e-07     2.929827e-03                           (NR   MIcro)
   61     dE     2.247885e-07     2.546630e-04                           (NR   MIcro)
   61     dE     2.158474e-07     6.174518e-05                           (NR   MIcro)
   61     dE     2.150412e-07     4.590465e-06                           (NR   MIcro)
   61     dE     2.162769e-07     8.403357e-05                           (NR   MIcro)
   61     dE     2.154648e-07     2.751004e-06                           (NR   MIcro)
   61     dE     2.154624e-07     6.037647e-07                           (NR   MIcro)
WARNING: 2 diagonal Hessian elements are negative!
   62      -1639.794443381808     5.341699e-05                           (NR   MAcro)
WARNING : negative HOMO - LUMO gap : (op =  beta) -0.000161
   62     dE    -4.173417e-07     2.399798e-03                           (NR   MIcro)
   62     dE     2.929155e-07     3.407218e-04                           (NR   MIcro)
[...]
   92     dE     2.418236e-06     9.562824e-06                           (NR   MIcro)
   92     dE     2.417906e-06     2.215882e-05                           (NR   MIcro)
   92     dE     2.417800e-06     4.163468e-06                           (NR   MIcro)
   92     dE     2.417797e-06     2.535810e-07                           (NR   MIcro)
WARNING: 2 diagonal Hessian elements are negative!
   93      -1639.794421463578     1.155828e-03                     0.119 (TRAH MAcro)   No
WARNING : negative HOMO - LUMO gap : (op =  beta) -0.000267
   93     dE    -1.745508e-07     1.995648e-03    -1.7455e-07      0.000 (TRAH MIcro)
   93     dE    -3.512974e-07     1.793536e-03    -3.5130e-07      0.001 (TRAH MIcro)
   93     dE    -1.886254e-06     1.114609e-03    -1.8853e-06      0.022 (TRAH MIcro)
   93     dE    -2.125618e-06     5.728241e-04    -2.1242e-06      0.025 (TRAH MIcro)
   93     dE    -2.185022e-06     1.199042e-04    -2.1835e-06      0.026 (TRAH MIcro)
   93     dE    -2.187505e-06     1.098161e-04    -2.1860e-06      0.027 (TRAH MIcro)
WARNING: 2 diagonal Hessian elements are negative!
   94      -1639.794424422264     1.624912e-04                           (NR   MAcro)
WARNING : negative HOMO - LUMO gap : (op =  beta) -0.000277
   94     dE    -1.011273e-07     7.353834e-04                           (NR   MIcro)
   94     dE    -9.301035e-06     1.296269e-02                           (NR   MIcro)
   94     dE     6.244149e-06     3.183688e-03                           (NR   MIcro)
   94     dE     4.621568e-06     5.241222e-04                           (NR   MIcro)
   94     dE     4.384463e-06     8.128269e-04                           (NR   MIcro)
   94     dE     2.884556e-06     1.567255e-03                           (NR   MIcro)
   94     dE     2.354452e-06     2.716301e-04                           (NR   MIcro)
   94     dE     2.284388e-06     4.464999e-04                           (NR   MIcro)
   94     dE     1.893607e-06     7.402630e-04                           (NR   MIcro)
   94     dE     1.804529e-06     7.095484e-05                           (NR   MIcro)
   94     dE     1.803935e-06     4.359673e-06                           (NR   MIcro)
   94     dE     1.803885e-06     1.121389e-05                           (NR   MIcro)
   94     dE     1.803356e-06     2.925734e-05                           (NR   MIcro)
   94     dE     1.803037e-06     4.502814e-06                           (NR   MIcro)
   94     dE     1.803033e-06     3.736341e-07                           (NR   MIcro)
WARNING: 2 diagonal Hessian elements are negative!
   95      -1639.794421430167     7.740992e-04                           (NR   MAcro)
WARNING : negative HOMO - LUMO gap : (op =  beta) -0.000278
   95     dE    -1.268840e-07     1.448117e-04                           (NR   MIcro)
   95     dE    -2.864710e-07     7.851542e-04                           (NR   MIcro)
   95     dE    -6.369668e-07     1.125031e-03                           (NR   MIcro)
   95     dE    -9.845946e-07     1.261679e-04                           (NR   MIcro)
   95     dE    -1.000982e-06     1.060133e-04                           (NR   MIcro)
   95     dE    -1.119078e-06     3.830338e-04                           (NR   MIcro)
   95     dE    -1.183282e-06     8.138389e-05                           (NR   MIcro)
   95     dE    -1.211096e-06     2.999656e-04                           (NR   MIcro)
   95     dE    -1.569302e-06     3.031306e-04                           (NR   MIcro)
   95     dE    -1.589605e-06     5.861114e-05                           (NR   MIcro)
   95     dE    -1.590799e-06     3.393389e-05                           (NR   MIcro)
   95     dE    -1.600691e-06     1.669567e-04                           (NR   MIcro)
   95     dE    -1.626958e-06     1.185788e-04                           (NR   MIcro)
   95     dE    -1.629626e-06     1.917995e-05                           (NR   MIcro)
   95     dE    -1.629693e-06     1.290262e-06                           (NR   MIcro)
WARNING: 2 diagonal Hessian elements are negative!
   96      -1639.794422752226     4.161670e-04                           (NR   MAcro)
WARNING : negative HOMO - LUMO gap : (op =  beta) -0.000278
   96     dE    -5.913005e-08     1.867118e-04                           (NR   MIcro)
   96     dE    -4.462867e-07     1.096866e-03                           (NR   MIcro)
   96     dE    -7.973677e-07     1.047710e-03                           (NR   MIcro)
   96     dE    -1.057063e-06     6.970732e-05                           (NR   MIcro)
   96     dE    -1.070652e-06     1.521880e-04                           (NR   MIcro)
   96     dE    -1.159499e-06     2.589421e-04                           (NR   MIcro)
   96     dE    -1.184221e-06     6.077728e-05                           (NR   MIcro)
   96     dE    -1.225662e-06     4.137806e-04                           (NR   MIcro)
   96     dE    -1.911383e-06     1.544077e-03                           (NR   MIcro)
   96     dE    -2.722781e-06     1.962339e-04                           (NR   MIcro)
   96     dE    -2.736849e-06     9.492744e-05                           (NR   MIcro)
   96     dE    -2.782351e-06     4.757967e-04                           (NR   MIcro)
   96     dE    -3.096366e-06     4.477507e-04                           (NR   MIcro)
   96     dE    -3.157168e-06     6.083360e-05                           (NR   MIcro)
   96     dE    -3.157933e-06     3.811855e-06                           (NR   MIcro)
   97      -1639.794418825961     1.013531e-02                     0.143 (TRAH MAcro)   No
WARNING : small    HOMO - LUMO gap : (op =  beta) 0.000058
   97     dE    -1.178264e-05     7.378214e-03    -1.1783e-05      0.001 (TRAH MIcro)
   97     dE    -1.542570e-05     7.317449e-03    -1.5422e-05      0.016 (TRAH MIcro)
   97     dE    -1.587699e-05     6.675799e-03    -1.5872e-05      0.017 (TRAH MIcro)
   97     dE    -2.291783e-05     1.060526e-03    -2.2906e-05      0.023 (TRAH MIcro)
   97     dE    -2.318214e-05     3.419005e-04    -2.3167e-05      0.025 (TRAH MIcro)
WARNING: 2 diagonal Hessian elements are negative!
   98      -1639.794441853221     3.869318e-04                           (NR   MAcro)
WARNING : negative HOMO - LUMO gap : (op =  beta) -0.000156
   98     dE    -2.756928e-08     1.630998e-04                           (NR   MIcro)
   98     dE    -6.419761e-08     3.042049e-04                           (NR   MIcro)
   98     dE    -1.635139e-07     1.036716e-04                           (NR   MIcro)
   98     dE    -1.715572e-07     7.526192e-05                           (NR   MIcro)
   98     dE    -1.137291e-07     1.373727e-04                           (NR   MIcro)
   98     dE    -1.193574e-07     1.720360e-05                           (NR   MIcro)
   98     dE    -1.194737e-07     9.811638e-06                           (NR   MIcro)
   98     dE    -1.197705e-07     3.408018e-05                           (NR   MIcro)
   98     dE    -1.219894e-07     3.038678e-05                           (NR   MIcro)
   98     dE    -1.222053e-07     4.512879e-06                           (NR   MIcro)
   98     dE    -1.222088e-07     5.988694e-07                           (NR   MIcro)
WARNING: 2 diagonal Hessian elements are negative!
   99      -1639.794442063829     3.336207e-05                           (NR   MAcro)
WARNING : negative HOMO - LUMO gap : (op =  beta) -0.000164
   99     dE    -7.318849e-08     4.434941e-04                           (NR   MIcro)
   99     dE    -1.414606e-07     7.432092e-05                           (NR   MIcro)
   99     dE    -1.476791e-07     1.548117e-04                           (NR   MIcro)
   99     dE    -2.219731e-07     7.982713e-04                           (NR   MIcro)
   99     dE    -7.913133e-08     2.595276e-05                           (NR   MIcro)
   99     dE    -7.933040e-08     5.105570e-06                           (NR   MIcro)
   99     dE    -7.933606e-08     1.459300e-06                           (NR   MIcro)
   99     dE    -7.934454e-08     4.859289e-06                           (NR   MIcro)
   99     dE    -7.941423e-08     7.499322e-06                           (NR   MIcro)
   99     dE    -7.942485e-08     1.081625e-06                           (NR   MIcro)
   99     dE    -7.942510e-08     8.485490e-08                           (NR   MIcro)
WARNING: 2 diagonal Hessian elements are negative!
  100      -1639.794442213474     3.297622e-05                           (NR   MAcro)
WARNING : negative HOMO - LUMO gap : (op =  beta) -0.000163
  100     dE    -7.213711e-08     4.503926e-04                           (NR   MIcro)
  100     dE    -1.485460e-07     8.525548e-05                           (NR   MIcro)
  100     dE    -1.601912e-07     2.277612e-04                           (NR   MIcro)
  100     dE    -4.420124e-07     2.138208e-03                           (NR   MIcro)
  100     dE    -6.030696e-08     2.413776e-05                           (NR   MIcro)
  100     dE    -6.049970e-08     2.165891e-06                           (NR   MIcro)
  100     dE    -6.050357e-08     2.002431e-06                           (NR   MIcro)
  100     dE    -6.055274e-08     1.117975e-05                           (NR   MIcro)
  100     dE    -6.060208e-08     3.692444e-06                           (NR   MIcro)
  100     dE    -6.060452e-08     3.124728e-07                           (NR   MIcro)
WARNING: 2 diagonal Hessian elements are negative!
  101      -1639.794442324821     3.287436e-05                           (NR   MAcro)
WARNING : negative HOMO - LUMO gap : (op =  beta) -0.000163
  101     dE    -7.406126e-08     4.692125e-04                           (NR   MIcro)
  101     dE    -1.659217e-07     1.053865e-04                           (NR   MIcro)
  101     dE    -1.862536e-07     3.137413e-04                           (NR   MIcro)
  101     dE     2.302145e-06     1.300744e-02                           (NR   MIcro)
  101     dE    -4.017455e-08     2.553046e-05                           (NR   MIcro)
  101     dE    -4.038358e-08     3.542525e-06                           (NR   MIcro)
  101     dE    -4.038791e-08     2.142605e-06                           (NR   MIcro)
  101     dE    -4.040228e-08     6.621608e-06                           (NR   MIcro)
  101     dE    -4.050263e-08     5.555203e-06                           (NR   MIcro)
  101     dE    -4.050971e-08     6.661468e-07                           (NR   MIcro)
WARNING: 2 diagonal Hessian elements are negative!
  102      -1639.794442394988     3.331496e-05                           (NR   MAcro)
WARNING : negative HOMO - LUMO gap : (op =  beta) -0.000163
  102     dE    -7.948975e-08     5.032665e-04                           (NR   MIcro)
  102     dE    -2.006271e-07     1.368624e-04                           (NR   MIcro)
  102     dE    -2.394013e-07     4.514407e-04                           (NR   MIcro)
  102     dE     3.953325e-07     2.243322e-03                           (NR   MIcro)
  102     dE    -1.807817e-08     3.205523e-05                           (NR   MIcro)
  102     dE    -1.834313e-08     7.020103e-06                           (NR   MIcro)
  102     dE    -1.835398e-08     1.727273e-06                           (NR   MIcro)
  102     dE    -1.837246e-08     7.039283e-06                           (NR   MIcro)
  102     dE    -1.848501e-08     8.709235e-06                           (NR   MIcro)
  102     dE    -1.849946e-08     1.351881e-06                           (NR   MIcro)
  102     dE    -1.849983e-08     1.010572e-07                           (NR   MIcro)
WARNING: 2 diagonal Hessian elements are negative!
  103      -1639.794442419688     3.447336e-05                           (NR   MAcro)
WARNING : negative HOMO - LUMO gap : (op =  beta) -0.000163
  103     dE    -8.945543e-08     5.568000e-04                           (NR   MIcro)
  103     dE    -2.668012e-07     1.871561e-04                           (NR   MIcro)
  103     dE    -3.511306e-07     7.007116e-04                           (NR   MIcro)
  103     dE     2.840668e-07     1.444611e-03                           (NR   MIcro)
  103     dE     6.727470e-09     2.832755e-05                           (NR   MIcro)
  103     dE     6.467846e-09     2.591389e-06                           (NR   MIcro)
  103     dE     6.461270e-09     2.953647e-06                           (NR   MIcro)
  103     dE     6.380662e-09     1.423369e-05                           (NR   MIcro)
  103     dE     6.296396e-09     5.242461e-06                           (NR   MIcro)
  103     dE     6.291430e-09     3.778396e-07                           (NR   MIcro)
WARNING: 2 diagonal Hessian elements are negative!
  104      -1639.794442392808     3.643850e-05                           (NR   MAcro)
WARNING : negative HOMO - LUMO gap : (op =  beta) -0.000164
  104     dE    -1.051739e-07     6.306053e-04                           (NR   MIcro)
  104     dE    -3.952496e-07     2.724156e-04                           (NR   MIcro)
  104     dE    -6.182687e-07     1.235049e-03                           (NR   MIcro)
  104     dE     2.784950e-07     1.190345e-03                           (NR   MIcro)
  104     dE     3.543469e-08     3.125182e-05                           (NR   MIcro)
  104     dE     3.512651e-08     3.615760e-06                           (NR   MIcro)
  104     dE     3.511975e-08     3.170430e-06                           (NR   MIcro)
  104     dE     3.508915e-08     1.020878e-05                           (NR   MIcro)
  104     dE     3.492915e-08     7.318972e-06                           (NR   MIcro)
  104     dE     3.491674e-08     8.184343e-07                           (NR   MIcro)

               *****************************************************
               *                      ERROR                        *
               *        SCF NOT CONVERGED AFTER 1013 CYCLES         *
               *****************************************************


---------------
SCF CONVERGENCE
---------------

  Last Energy change         ...    0.0000e+00  Tolerance :   1.0000e-08
  Last Orbital Gradient      ...    3.6438e-05  Tolerance :   1.0000e-05
  Last Orbital Rotation      ...    1.0583e-02

             **** DENSITY cu2+.scfp WAS UPDATED ****
             **** ENERGY FILE WAS UPDATED (cu2+.en.tmp) ****

     --------------------------------------------------------------------
                                      WARNING
     The wavefunction IS NOT YET CONVERGED! It shows however signs of
     convergence. Therefore the wavefunction will be stored and can be
     used as input for another calculation. 
     DO NOT USE THIS WAVEFUNCTION  FOR ANYHTING ELSE. It is NOT RELIABLE
     --------------------------------------------------------------------

-------
TIMINGS
-------

Total SCF time: 0 days 0 hours 3 min 56 sec 

Total time                  ....     236.610 sec
Sum of individual times     ....     224.912 sec  ( 95.1%)

Fock matrix formation       ....      32.765 sec  ( 13.8%)
  Split-RI-J                ....      18.307 sec  ( 55.9% of F)
  XC integration            ....      11.157 sec  ( 34.1% of F)
    Basis function eval.    ....       0.751 sec  (  6.7% of XC)
    Density eval.           ....       0.728 sec  (  6.5% of XC)
    XC-Functional eval.     ....       0.176 sec  (  1.6% of XC)
    XC-Potential eval.      ....       0.718 sec  (  6.4% of XC)
Diagonalization             ....       0.418 sec  (  0.2%)
Density matrix formation    ....       6.504 sec  (  2.7%)
Population analysis         ....       0.000 sec  (  0.0%)
Initial guess               ....       0.018 sec  (  0.0%)
Orbital Transformation      ....      57.582 sec  ( 24.3%)
Orbital Orthonormalization  ....       0.000 sec  (  0.0%)
DIIS solution               ....       2.639 sec  (  1.1%)
Grid generation             ....       0.193 sec  (  0.1%)

Maximum memory used throughout the entire SCF-calculation: 7.5 MB


-------------------------------------------------------------------------------
                          DFT DISPERSION CORRECTION                            
                                                                               
                              DFTD3 V3.1  Rev 1                                
                          USING Becke-Johnson damping                          
-------------------------------------------------------------------------------
The PBE functional is recognized
Active option DFTDOPT                   ...         4   

molecular C6(AA) [au] = 332.271407 


            DFT-D V3
 parameters
 s6 scaling factor         :     1.0000 
 a1 scaling factor         :     0.4289 
 s8 scaling factor         :     0.7875 
 a2 scaling factor         :     4.4407 
 ad hoc parameters k1-k3   :    16.0000     1.3333    -4.0000 

 Edisp/kcal,au: -0.000000000000  -0.000000000000 
 E6   /kcal   :  -0.000000000 
 E8   /kcal   :  -0.000000000 
 % E8         :          -nan 

-------------------------   ----------------
Dispersion correction            0.000000000
-------------------------   ----------------


-------------------------   --------------------
FINAL SINGLE POINT ENERGY     -1639.794442392808   (Wavefunction not fully converged!)
-------------------------   --------------------

No protocol specified


           ************************************************************
           *        Program running with 16 parallel MPI-processes    *
           *              working on a common directory               *
           ************************************************************
------------------------------------------------------------------------------
                         ORCA SCF GRADIENT CALCULATION
------------------------------------------------------------------------------

Gradient of the Kohn-Sham DFT energy:
Kohn-Sham wavefunction type      ... UKS
Hartree-Fock exchange scaling    ...    0.000
Number of operators              ...    2
Number of atoms                  ...    1
Basis set dimensions             ...   45
Integral neglect threshold       ... 2.5e-11
Integral primitive cutoff        ... 2.5e-12
SHARK Integral package           ... ON

Nuc. rep. gradient       (SHARK) ... done (  0.0 sec)
HCore & Overlap gradient (SHARK) ... done (  0.0 sec)
RI-J gradient            (SHARK) ... done (  0.2 sec)
Exchange-correlation gradient    ... done
Dispersion correction            ... done

------------------
CARTESIAN GRADIENT
------------------

   1   Cu  :    0.000000000    0.000000000   -0.000000000

Difference to translation invariance:
           :    0.0000000002    0.0000000001   -0.0000000000

Difference to rotation invariance:
           :    0.0000000000    0.0000000000    0.0000000017

Norm of the cartesian gradient     ...    0.0000000002
RMS gradient                       ...    0.0000000001
MAX gradient                       ...    0.0000000002

-------
TIMINGS
-------

Total SCF gradient time            ...        0.487 sec

One electron gradient       ....       0.003 sec  (  0.5%)
RI-J Coulomb gradient       ....       0.189 sec  ( 38.7%)
XC gradient                 ....       0.020 sec  (  4.0%)
CPCM gradient               ....       0.060 sec  ( 12.3%)
   A-Matrix (El+Nuc)        ....       0.000 sec  (  0.0%)
   Potential                ....       0.060 sec  ( 12.3%)

Maximum memory used throughout the entire SCFGRAD-calculation: 25.4 MB


     ------------------------------------------------------------------------------
                                      ERROR
     This wavefunction IS NOT FULLY CONVERGED! 
     You can't use it for properties or numerical calculations !
     Aborting the run ...
     Please restart calculation (with larger maxiter/different convergence flags)
     ------------------------------------------------------------------------------


