
                                 *****************
                                 * O   R   C   A *
                                 *****************

                                            #,                                       
                                            ###                                      
                                            ####                                     
                                            #####                                    
                                            ######                                   
                                           ########,                                 
                                     ,,################,,,,,                         
                               ,,#################################,,                 
                          ,,##########################################,,             
                       ,#########################################, ''#####,          
                    ,#############################################,,   '####,        
                  ,##################################################,,,,####,       
                ,###########''''           ''''###############################       
              ,#####''   ,,,,##########,,,,          '''####'''          '####       
            ,##' ,,,,###########################,,,                        '##       
           ' ,,###''''                  '''############,,,                           
         ,,##''                                '''############,,,,        ,,,,,,###''
      ,#''                                            '''#######################'''  
     '                                                          ''''####''''         
             ,#######,   #######,   ,#######,      ##                                
            ,#'     '#,  ##    ##  ,#'     '#,    #''#        ######   ,####,        
            ##       ##  ##   ,#'  ##            #'  '#       #        #'  '#        
            ##       ##  #######   ##           ,######,      #####,   #    #        
            '#,     ,#'  ##    ##  '#,     ,#' ,#      #,         ##   #,  ,#        
             '#######'   ##     ##  '#######'  #'      '#     #####' # '####'        



                  #######################################################
                  #                        -***-                        #
                  #          Department of theory and spectroscopy      #
                  #    Directorship and core code : Frank Neese         #
                  #        Max Planck Institute fuer Kohlenforschung    #
                  #                Kaiser Wilhelm Platz 1               #
                  #                 D-45470 Muelheim/Ruhr               #
                  #                      Germany                        #
                  #                                                     #
                  #                  All rights reserved                #
                  #                        -***-                        #
                  #######################################################


                         Program Version 5.0.2 -  RELEASE  -


 With contributions from (in alphabetic order):
   Daniel Aravena         : Magnetic Suceptibility
   Michael Atanasov       : Ab Initio Ligand Field Theory (pilot matlab implementation)
   Alexander A. Auer      : GIAO ZORA, VPT2 properties, NMR spectrum
   Ute Becker             : Parallelization
   Giovanni Bistoni       : ED, misc. LED, open-shell LED, HFLD
   Martin Brehm           : Molecular dynamics
   Dmytro Bykov           : SCF Hessian
   Vijay G. Chilkuri      : MRCI spin determinant printing, contributions to CSF-ICE
   Dipayan Datta          : RHF DLPNO-CCSD density
   Achintya Kumar Dutta   : EOM-CC, STEOM-CC
   Dmitry Ganyushin       : Spin-Orbit,Spin-Spin,Magnetic field MRCI
   Miquel Garcia          : C-PCM and meta-GGA Hessian, CC/C-PCM, Gaussian charge scheme
   Yang Guo               : DLPNO-NEVPT2, F12-NEVPT2, CIM, IAO-localization
   Andreas Hansen         : Spin unrestricted coupled pair/coupled cluster methods
   Benjamin Helmich-Paris : MC-RPA, TRAH-SCF, COSX integrals
   Lee Huntington         : MR-EOM, pCC
   Robert Izsak           : Overlap fitted RIJCOSX, COSX-SCS-MP3, EOM
   Marcus Kettner         : VPT2
   Christian Kollmar      : KDIIS, OOCD, Brueckner-CCSD(T), CCSD density, CASPT2, CASPT2-K
   Simone Kossmann        : Meta GGA functionals, TD-DFT gradient, OOMP2, MP2 Hessian
   Martin Krupicka        : Initial AUTO-CI
   Lucas Lang             : DCDCAS
   Marvin Lechner         : AUTO-CI (C++ implementation), FIC-MRCC
   Dagmar Lenk            : GEPOL surface, SMD
   Dimitrios Liakos       : Extrapolation schemes; Compound Job, initial MDCI parallelization
   Dimitrios Manganas     : Further ROCIS development; embedding schemes
   Dimitrios Pantazis     : SARC Basis sets
   Anastasios Papadopoulos: AUTO-CI, single reference methods and gradients
   Taras Petrenko         : DFT Hessian,TD-DFT gradient, ASA, ECA, R-Raman, ABS, FL, XAS/XES, NRVS
   Peter Pinski           : DLPNO-MP2, DLPNO-MP2 Gradient
   Christoph Reimann      : Effective Core Potentials
   Marius Retegan         : Local ZFS, SOC
   Christoph Riplinger    : Optimizer, TS searches, QM/MM, DLPNO-CCSD(T), (RO)-DLPNO pert. Triples
   Tobias Risthaus        : Range-separated hybrids, TD-DFT gradient, RPA, STAB
   Michael Roemelt        : Original ROCIS implementation
   Masaaki Saitow         : Open-shell DLPNO-CCSD energy and density
   Barbara Sandhoefer     : DKH picture change effects
   Avijit Sen             : IP-ROCIS
   Kantharuban Sivalingam : CASSCF convergence, NEVPT2, FIC-MRCI
   Bernardo de Souza      : ESD, SOC TD-DFT
   Georgi Stoychev        : AutoAux, RI-MP2 NMR, DLPNO-MP2 response
   Willem Van den Heuvel  : Paramagnetic NMR
   Boris Wezisla          : Elementary symmetry handling
   Frank Wennmohs         : Technical directorship


 We gratefully acknowledge several colleagues who have allowed us to
 interface, adapt or use parts of their codes:
   Stefan Grimme, W. Hujo, H. Kruse, P. Pracht,  : VdW corrections, initial TS optimization,
                  C. Bannwarth, S. Ehlert          DFT functionals, gCP, sTDA/sTD-DF
   Ed Valeev, F. Pavosevic, A. Kumar             : LibInt (2-el integral package), F12 methods
   Garnet Chan, S. Sharma, J. Yang, R. Olivares  : DMRG
   Ulf Ekstrom                                   : XCFun DFT Library
   Mihaly Kallay                                 : mrcc  (arbitrary order and MRCC methods)
   Jiri Pittner, Ondrej Demel                    : Mk-CCSD
   Frank Weinhold                                : gennbo (NPA and NBO analysis)
   Christopher J. Cramer and Donald G. Truhlar   : smd solvation model
   Lars Goerigk                                  : TD-DFT with DH, B97 family of functionals
   V. Asgeirsson, H. Jonsson                     : NEB implementation
   FAccTs GmbH                                   : IRC, NEB, NEB-TS, DLPNO-Multilevel, CI-OPT
                                                   MM, QMMM, 2- and 3-layer-ONIOM, Crystal-QMMM,
                                                   LR-CPCM, SF, NACMEs, symmetry and pop. for TD-DFT,
                                                   nearIR, NL-DFT gradient (VV10), updates on ESD,
                                                   ML-optimized integration grids
   S Lehtola, MJT Oliveira, MAL Marques          : LibXC Library
   Liviu Ungur et al                             : ANISO software


 Your calculation uses the libint2 library for the computation of 2-el integrals
 For citations please refer to: http://libint.valeyev.net

 Your ORCA version has been built with support for libXC version: 5.1.0
 For citations please refer to: https://tddft.org/programs/libxc/

 This ORCA versions uses:
   CBLAS   interface :  Fast vector & matrix operations
   LAPACKE interface :  Fast linear algebra routines
   SCALAPACK package :  Parallel linear algebra routines
   Shared memory     :  Shared parallel matrices
   BLAS/LAPACK       :  OpenBLAS 0.3.15  USE64BITINT DYNAMIC_ARCH NO_AFFINITY Haswell SINGLE_THREADED
        Core in use  :  Haswell
   Copyright (c) 2011-2014, The OpenBLAS Project


Your calculation utilizes the atom-pairwise dispersion correction
with the Becke-Johnson damping scheme (D3BJ)
Cite in your paper:
S.Grimme, S.Ehrlich, L.Goerigk, J Comput Chem, (2011), 32, 1456–1465 
S.Grimme, J.Antony, S.Ehrlich and H.Krieg, J.Chem.Phys., 132, (2010), 154104 
   

================================================================================

----- Orbital basis set information -----
Your calculation utilizes the basis: def2-TZVP
   F. Weigend and R. Ahlrichs, Phys. Chem. Chem. Phys. 7, 3297 (2005).

----- AuxJ basis set information -----
Your calculation utilizes the auxiliary basis: def2/J
   F. Weigend, Phys. Chem. Chem. Phys. 8, 1057 (2006).

================================================================================
                                        WARNINGS
                       Please study these warnings very carefully!
================================================================================


WARNING: The environment variable RSH_COMMAND is not set!
  ===> : All Displacements for the Numerical Hessian or Gradient calculation
         will be started on localhost

INFO   : the flag for use of the SHARK integral package has been found!

Your calculation utilizes the atom-pairwise dispersion correction
with the Becke-Johnson damping scheme (D3BJ)
Cite in your paper:
S.Grimme, S.Ehrlich, L.Goerigk, J Comput Chem, (2011), 32, 1456–1465 
S.Grimme, J.Antony, S.Ehrlich and H.Krieg, J.Chem.Phys., 132, (2010), 154104 
   

================================================================================

----- Orbital basis set information -----
Your calculation utilizes the basis: def2-TZVP
   F. Weigend and R. Ahlrichs, Phys. Chem. Chem. Phys. 7, 3297 (2005).

----- AuxJ basis set information -----
Your calculation utilizes the auxiliary basis: def2/J
   F. Weigend, Phys. Chem. Chem. Phys. 8, 1057 (2006).

================================================================================
                                        WARNINGS
                       Please study these warnings very carefully!
================================================================================


WARNING: MOInp is set but Guess=PModel. MOInp will be ignored!
         To read the initial guess from a file you must also specify
         'MORead' in the simple input or 'Guess MORead' in the %scf block


WARNING: The environment variable RSH_COMMAND is not set!
  ===> : All Displacements for the Numerical Hessian or Gradient calculation
         will be started on localhost

INFO   : the flag for use of the SHARK integral package has been found!

Your calculation utilizes the atom-pairwise dispersion correction
with the Becke-Johnson damping scheme (D3BJ)
Cite in your paper:
S.Grimme, S.Ehrlich, L.Goerigk, J Comput Chem, (2011), 32, 1456–1465 
S.Grimme, J.Antony, S.Ehrlich and H.Krieg, J.Chem.Phys., 132, (2010), 154104 
   

================================================================================

----- Orbital basis set information -----
Your calculation utilizes the basis: def2-TZVP
   F. Weigend and R. Ahlrichs, Phys. Chem. Chem. Phys. 7, 3297 (2005).

----- AuxJ basis set information -----
Your calculation utilizes the auxiliary basis: def2/J
   F. Weigend, Phys. Chem. Chem. Phys. 8, 1057 (2006).

================================================================================
                                        WARNINGS
                       Please study these warnings very carefully!
================================================================================


WARNING: MOInp is set but Guess=PModel. MOInp will be ignored!
         To read the initial guess from a file you must also specify
         'MORead' in the simple input or 'Guess MORead' in the %scf block


WARNING: The environment variable RSH_COMMAND is not set!
  ===> : All Displacements for the Numerical Hessian or Gradient calculation
         will be started on localhost

INFO   : the flag for use of the SHARK integral package has been found!

Your calculation utilizes the atom-pairwise dispersion correction
with the Becke-Johnson damping scheme (D3BJ)
Cite in your paper:
S.Grimme, S.Ehrlich, L.Goerigk, J Comput Chem, (2011), 32, 1456–1465 
S.Grimme, J.Antony, S.Ehrlich and H.Krieg, J.Chem.Phys., 132, (2010), 154104 
   

================================================================================

----- Orbital basis set information -----
Your calculation utilizes the basis: def2-TZVP
   F. Weigend and R. Ahlrichs, Phys. Chem. Chem. Phys. 7, 3297 (2005).

----- AuxJ basis set information -----
Your calculation utilizes the auxiliary basis: def2/J
   F. Weigend, Phys. Chem. Chem. Phys. 8, 1057 (2006).

================================================================================
                                        WARNINGS
                       Please study these warnings very carefully!
================================================================================


WARNING: MOInp is set but Guess=PModel. MOInp will be ignored!
         To read the initial guess from a file you must also specify
         'MORead' in the simple input or 'Guess MORead' in the %scf block


WARNING: The environment variable RSH_COMMAND is not set!
  ===> : All Displacements for the Numerical Hessian or Gradient calculation
         will be started on localhost

INFO   : the flag for use of the SHARK integral package has been found!

Your calculation utilizes the atom-pairwise dispersion correction
with the Becke-Johnson damping scheme (D3BJ)
Cite in your paper:
S.Grimme, S.Ehrlich, L.Goerigk, J Comput Chem, (2011), 32, 1456–1465 
S.Grimme, J.Antony, S.Ehrlich and H.Krieg, J.Chem.Phys., 132, (2010), 154104 
   

================================================================================

----- Orbital basis set information -----
Your calculation utilizes the basis: def2-TZVP
   F. Weigend and R. Ahlrichs, Phys. Chem. Chem. Phys. 7, 3297 (2005).

----- AuxJ basis set information -----
Your calculation utilizes the auxiliary basis: def2/J
   F. Weigend, Phys. Chem. Chem. Phys. 8, 1057 (2006).

================================================================================
                                        WARNINGS
                       Please study these warnings very carefully!
================================================================================


WARNING: MOInp is set but Guess=PModel. MOInp will be ignored!
         To read the initial guess from a file you must also specify
         'MORead' in the simple input or 'Guess MORead' in the %scf block


WARNING: The environment variable RSH_COMMAND is not set!
  ===> : All Displacements for the Numerical Hessian or Gradient calculation
         will be started on localhost

INFO   : the flag for use of the SHARK integral package has been found!

================================================================================
                                       INPUT FILE
================================================================================
NAME = ex.inp
|  1> ! PBE D3 def2-TZVP opt numfreq PModel NOAUTOSTART cpcm(water)
|  2> %pal nprocs=16 end
|  3> %geom maxiter=150 end
|  4> %base "neutral"
|  5> *xyz 0 1
|  6>   C   -0.16956275902319     -1.05723776953197     -0.42855573482908
|  7>   C   -1.12049633747951      1.56689456986943     -0.40457714593906
|  8>   C   -1.49766850531287     -0.80182883019116     -0.09789615908916
|  9>   C   0.70732932900320     -0.00823930703059     -0.75419200869246
| 10>   C   0.21367419221910      1.30221872431803     -0.73622877732475
| 11>   C   -1.98334857764453      0.52206579760669     -0.08371303193396
| 12>   O   -3.28969424706806      0.78221108257525      0.23679794331409
| 13>   O   -2.41559817817122     -1.77020993683817      0.22649082221633
| 14>   C   2.15856108487085     -0.29741264721991     -1.04859825776193
| 15>   C   2.97699274407939     -0.56111664179439      0.22438078848305
| 16>   N   3.00140109056235      0.59987802667241      1.15141474454759
| 17>   H   0.18425558916964     -2.09273283462065     -0.43226705452194
| 18>   H   -1.50434247619658      2.58866486627717     -0.39495791168826
| 19>   H   0.87782850150056      2.13121758201600     -0.98897223308437
| 20>   H   -3.72644112671859     -0.07268297627110      0.42468394020453
| 21>   H   -1.99410558179115     -2.64896350266336      0.18712276410747
| 22>   H   2.60584930272273      0.55084901765693     -1.59067756468002
| 23>   H   2.24956711915552     -1.18389655493360     -1.69625431507643
| 24>   H   2.55895834412829     -1.41779134519945      0.77113567634485
| 25>   H   4.01534790078667     -0.80613156929532     -0.03624050077794
| 26>   H   2.03329879380544      0.87750018145755      1.35629998853939
| 27>   H   3.41350574596892      1.40462765690431      0.66496033844458
| 28>   Cu  5.02114396194472      0.09179327663091      4.89000358850794
| 29>   Cu  3.94820870312324      0.34900523529700      2.87477731823652
| 30> *
| 31> 
| 32> 
| 33> $new_job
| 34> 
| 35> ! PBE D3 def2-TZVP opt numfreq PModel NOAUTOSTART cpcm(water)
| 36> %pal nprocs=16 end
| 37> %geom maxiter=150 end
| 38> %base "protonated"
| 39> *xyz 1 1
| 40>   C   -0.90555691796236     -1.76727196196750      0.06781371989323
| 41>   C   -0.12834988709469      0.92274951786431      0.27523755411363
| 42>   C   -1.80381126969437     -0.75055130417119     -0.30261320008491
| 43>   C   0.38618984625102     -1.42703607492861      0.55791935662923
| 44>   C   0.78429358859036     -0.07478825507147      0.64934866445700
| 45>   C   -1.40302561317021      0.60000140186490     -0.19490258576677
| 46>   O   -3.05051051858996     -1.08082130972810     -0.72823220400369
| 47>   O   -2.34302401539286      1.51694514377157     -0.56538160180721
| 48>   C   2.16328992340225      0.29707393066189      1.13544356823738
| 49>   C   3.07847444984984      0.87939305022518      0.05980406178152
| 50>   N   3.49433775360465     -0.14528000282081     -0.95183106658424
| 51>   H   2.67732043509841     -0.52668097524284     -1.52095056778184
| 52>   H   4.15878154021069      0.25526394417826     -1.62786300425135
| 53>   H   3.95537783810907     -0.95009205225430     -0.50552217070248
| 54>   H   -1.25254838851214     -2.80172036596369      0.07740172612679
| 55>   H   0.15383003645268      1.97713903579491      0.34361163442234
| 56>   H   1.04001011376029     -2.21271236491610      0.94086042341998
| 57>   H   -3.52734240454617     -0.25626197954279     -0.95548314521913
| 58>   H   -1.99078192515984      2.42160990285829     -0.46422612206559
| 59>   H   2.64874967274188     -0.57704322548680      1.59562618502889
| 60>   H   2.08346617924978      1.06595788620024      1.91940314460614
| 61>   H   2.58715152857642      1.68865588234252     -0.49485351875117
| 62>   H   3.99923751311326      1.26964953991042      0.50998323011687
| 63>   Cu  0.50815416230542     -1.55136817752279     -1.56549688258349
| 64>   Cu  1.59341250580748     -1.25898787843247     -3.55746432771010
| 65> *
| 66> 
| 67> 
| 68> $new_job
| 69> 
| 70> ! PBE D3 def2-TZVP opt numfreq PModel NOAUTOSTART cpcm(water)
| 71> %pal nprocs=16 end
| 72> %geom maxiter=150 end
| 73> %base "deprotonated"
| 74> *xyz -1 1
| 75>   O   2.31492786438966     -1.88111046153497     -0.35995601435756
| 76>   O   3.32215631797726      0.47281535203735     -0.38750329221530
| 77>   N   -2.94594324708543      0.70379108933975     -1.08282437235664
| 78>   C   -2.12324767925480     -0.19852765943722      1.11322762861623
| 79>   C   -0.66904514744192      0.01255725444151      0.76826759696115
| 80>   C   -2.99625876990075     -0.43648939647672     -0.12847501122529
| 81>   C   0.14077087930782     -1.08701929460024      0.38927482100724
| 82>   C   -0.09984580535831      1.29090730067584      0.74491582238464
| 83>   C   1.45637917764210     -0.87912000154714      0.01393297570922
| 84>   C   1.23876312933849      1.50521773576701      0.36474716585754
| 85>   C   2.06972870523363      0.42744040671043     -0.01686039104136
| 86>   H   -2.51125902558707      0.68055712731164      1.65410752196721
| 87>   H   -2.24749789616294     -1.06865410638947      1.78007701132043
| 88>   H   -4.04632338659281     -0.59465896119588      0.15432197814706
| 89>   H   -2.65379480289609     -1.33443038369679     -0.66186903265321
| 90>   H   -0.27044086685890     -2.10143701090159      0.39379138751322
| 91>   H   -0.71479671895292      2.14780395547732      1.03714876749039
| 92>   H   1.65338848302474      2.51761462704979      0.36400324968783
| 93>   H   -1.95532646168415      0.93704608296165     -1.23733186410258
| 94>   H   -3.34256107837562      1.53257045954505     -0.62477779340458
| 95>   H   3.13393620683108     -1.31675605984705     -0.54045410433459
| 96>   Cu  -4.82005470809202      0.16072103823250     -4.88906016197419
| 97>   Cu  -3.82075354936399      0.44527003202422     -2.83741914032483
| 98> *
| 99> 
|100> $new_job
|101> 
|102> ! PBE D3 def2-TZVP opt numfreq PModel NOAUTOSTART cpcm(water)
|103> %pal nprocs=16 end
|104> %geom maxiter=150 end
|105> %base "2x_deprotonated"
|106> *xyz -2 1
|107>   O   2.04500831622719     -1.66736970735333      0.98915238049675
|108>   O   3.05148002359569      0.97100191379782      0.86397102036135
|109>   N   -3.68642067510173      0.27370707678023      0.76426055932533
|110>   C   -2.17860274253721     -0.26158633006809     -1.13375339037480
|111>   C   -0.84396185236192      0.09711732451515     -0.52048305884621
|112>   C   -3.22786359534133     -0.78845990916295     -0.14625364567804
|113>   C   -0.02056784394365     -0.90357101358277      0.06870726128312
|114>   C   -0.36064428144890      1.41966028503319     -0.52648891478644
|115>   C   1.31384225961165     -0.70256944501393      0.55373068323946
|116>   C   0.92934067253038      1.70872474056965      0.03752013694052
|117>   C   1.84656594552083      0.70229255541698      0.50558421700988
|118>   H   -2.02886391103079     -1.03665520762076     -1.90635503346661
|119>   H   -2.59302557004625      0.62412683272668     -1.64290524856236
|120>   H   -2.80471646763263     -1.66403659690741      0.38565051651787
|121>   H   -4.09869008084708     -1.15136281412736     -0.71586583929577
|122>   H   -0.39493308541852     -1.93365408342772      0.10380399235223
|123>   H   -0.95241076622611      2.21962843147823     -0.97695889133384
|124>   H   1.30202398057182      2.73705380067501     -0.00135803957858
|125>   H   -2.87764531127628      0.58744326716065      1.33142468162053
|126>   H   -4.33965387412065     -0.12902197132342      1.44283786225421
|127>   Cu  -1.42737081565598      1.08811498504648      3.66984439127960
|128>   Cu  -0.40764220833537      1.06101800352666      1.61363687315076
|129> *
|130> 
|131> 
|132> $new_job
|133> 
|134> ! PBE D3 def2-TZVP opt numfreq PModel NOAUTOSTART cpcm(water)
|135> %pal nprocs=16 end
|136> %geom maxiter=150 end
|137> %base "zwitterione"
|138> *xyz 0 1
|139>   O   2.43450991500708     -2.13745678577080      1.15582492680410
|140>   C   1.78207340494618     -1.09755830124653      0.56407091176490
|141>   C   0.43534387093663     -1.15676452588701      0.15814626157475
|142>   C   -0.13058572085145     -0.06608578551048     -0.57892209380527
|143>   C   -1.55864124719162     -0.12892220411612     -1.06446292572923
|144>   C   -2.62511294311345     -0.16731748131176      0.02887220517868
|145>   N   -2.61150230494416      1.07755979107940      0.86392871762869
|146>   H   -1.73022345544140      1.12947620905341      1.46463528096524
|147>   H   -2.65269580816235      1.92598756254196      0.28334198190467
|148>   H   -3.41042637007737      1.09979458127936      1.51112481175910
|149>   C   0.68866743947902      1.03851296154222     -0.85729909921353
|150>   C   2.02975354833404      1.10825964494483     -0.43971062349239
|151>   C   2.64737191028949      0.03673493287782      0.26209582425099
|152>   O   3.87935034913508     -0.06423834146255      0.63097045573007
|153>   H   3.35386988359056     -1.73450928115483      1.23715606839358
|154>   H   -0.13987347822420     -2.07099650002301      0.32577108347042
|155>   H   -1.75451869317885      0.73098758085042     -1.72413325889540
|156>   H   -1.71754644916329     -1.03504001756551     -1.67238340233440
|157>   H   -3.62746402860688     -0.25156771695072     -0.40821065416189
|158>   H   -2.46717112347315     -1.00514149069399      0.72017962738677
|159>   H   0.26127358964327      1.87773391543804     -1.41238605442837
|160>   H   2.63412200643189      1.98374330620523     -0.68851292079098
|161>   Cu  -0.39738129103119      1.59086667066051      3.42377031217403
|162>   Cu  0.42822388896515      0.20681791092810      1.79723380288144
|163> *
|164> 
|165>                          ****END OF INPUT****
================================================================================


                 $$$$$$$$$$$$$$$$$$$$$$$$$$$$$$$$$$$$$$$$$$$$$$ 
                 $ THERE ARE  5 JOBS TO BE PROCESSED THIS RUN $
                 $$$$$$$$$$$$$$$$$$$$$$$$$$$$$$$$$$$$$$$$$$$$$$ 




                 $$$$$$$$$$$$$$$$  JOB NUMBER  1 $$$$$$$$$$$$$$


                       *****************************
                       * Geometry Optimization Run *
                       *****************************

Geometry optimization settings:
Update method            Update   .... BFGS
Choice of coordinates    CoordSys .... Z-matrix Internals
Initial Hessian          InHess   .... Almoef's Model

Convergence Tolerances:
Energy Change            TolE     ....  5.0000e-06 Eh
Max. Gradient            TolMAXG  ....  3.0000e-04 Eh/bohr
RMS Gradient             TolRMSG  ....  1.0000e-04 Eh/bohr
Max. Displacement        TolMAXD  ....  4.0000e-03 bohr
RMS Displacement         TolRMSD  ....  2.0000e-03 bohr
Strict Convergence                ....  False
------------------------------------------------------------------------------
                        ORCA OPTIMIZATION COORDINATE SETUP
------------------------------------------------------------------------------

The optimization will be done in new redundant internal coordinates
Making redundant internal coordinates   ...  (new redundants) done
Evaluating the initial hessian          ...  (Almloef) done
Evaluating the coordinates              ...  done
Calculating the B-matrix                .... done
Calculating the G-matrix                .... done
Diagonalizing the G-matrix              .... done
Small eigenvalue found = 6.954e-03
Small eigenvalue found = 1.383e-02
The first mode is                       ....   50
The number of degrees of freedom        ....   66

    -----------------------------------------------------------------
                    Redundant Internal Coordinates


    -----------------------------------------------------------------
         Definition                    Initial Value    Approx d2E/dq
    -----------------------------------------------------------------
      1. B(C   2,C   0)                  1.3923         0.619593   
      2. B(C   3,C   0)                  1.4055         0.590255   
      3. B(C   4,C   3)                  1.4005         0.601220   
      4. B(C   4,C   1)                  1.4000         0.602215   
      5. B(C   5,C   2)                  1.4102         0.580020   
      6. B(C   5,C   1)                  1.3925         0.619020   
      7. B(O   6,C   5)                  1.3700         0.602226   
      8. B(O   7,C   2)                  1.3732         0.595297   
      9. B(C   8,C   3)                  1.5088         0.403885   
     10. B(C   9,C   8)                  1.5362         0.365190   
     11. B(N  10,C   9)                  1.4859         0.393436   
     12. B(H  11,C   0)                  1.0943         0.354481   
     13. B(H  12,C   1)                  1.0915         0.358077   
     14. B(H  13,C   4)                  1.0919         0.357611   
     15. B(H  14,O   6)                  0.9782         0.486313   
     16. B(H  15,O   7)                  0.9754         0.491349   
     17. B(H  16,C   8)                  1.1016         0.345110   
     18. B(H  17,C   8)                  1.1016         0.345036   
     19. B(H  18,C   9)                  1.0989         0.348514   
     20. B(H  19,C   9)                  1.0982         0.349359   
     21. B(H  20,N  10)                  1.0278         0.405390   
     22. B(H  21,N  10)                  1.0267         0.406976   
     23. B(Cu 23,Cu 22)                  2.2975         2.281063   
     24. B(Cu 23,N  10)                  1.9823         0.642813   
     25. A(C   2,C   0,H  11)          118.8703         0.351932   
     26. A(C   3,C   0,H  11)          120.2484         0.349061   
     27. A(C   2,C   0,C   3)          120.8812         0.430197   
     28. A(C   4,C   1,C   5)          120.2134         0.431678   
     29. A(C   5,C   1,H  12)          118.8441         0.352478   
     30. A(C   4,C   1,H  12)          120.9422         0.350842   
     31. A(C   0,C   2,C   5)          120.2069         0.428849   
     32. A(C   0,C   2,O   7)          124.3607         0.428041   
     33. A(C   5,C   2,O   7)          115.4322         0.423014   
     34. A(C   4,C   3,C   8)          121.3925         0.399992   
     35. A(C   0,C   3,C   8)          120.1508         0.398699   
     36. A(C   0,C   3,C   4)          118.3917         0.427880   
     37. A(C   1,C   4,C   3)          121.0544         0.429422   
     38. A(C   3,C   4,H  13)          119.5419         0.350667   
     39. A(C   1,C   4,H  13)          119.4032         0.350765   
     40. A(C   1,C   5,O   6)          120.1501         0.428859   
     41. A(C   1,C   5,C   2)          119.2522         0.428778   
     42. A(C   2,C   5,O   6)          120.5973         0.423890   
     43. A(C   5,O   6,H  14)          107.7409         0.364075   
     44. A(C   2,O   7,H  15)          109.6907         0.363996   
     45. A(C   3,C   8,C   9)          112.5605         0.366808   
     46. A(C   3,C   8,H  17)          110.3900         0.326205   
     47. A(C   9,C   8,H  16)          108.8833         0.320871   
     48. A(C   3,C   8,H  16)          109.8157         0.326217   
     49. A(C   9,C   8,H  17)          107.7599         0.320859   
     50. A(H  16,C   8,H  17)          107.2659         0.286982   
     51. A(C   8,C   9,H  19)          110.2042         0.321514   
     52. A(N  10,C   9,H  18)          107.7551         0.323394   
     53. A(C   8,C   9,H  18)          110.0873         0.321386   
     54. A(N  10,C   9,H  19)          107.8687         0.323522   
     55. A(C   8,C   9,N  10)          113.0553         0.362892   
     56. A(H  18,C   9,H  19)          107.6871         0.287983   
     57. A(H  21,N  10,Cu 23)          108.6270         0.399427   
     58. A(H  20,N  10,Cu 23)          108.1068         0.399153   
     59. A(C   9,N  10,Cu 23)          116.8312         0.446417   
     60. A(H  20,N  10,H  21)          105.1186         0.297209   
     61. A(C   9,N  10,H  21)          108.8704         0.328938   
     62. A(C   9,N  10,H  20)          108.6606         0.328726   
     63. L(N  10,Cu 23,Cu 22,C   9, 2) 181.0179         0.778551   
     64. L(N  10,Cu 23,Cu 22,C   9, 1) 181.0341         0.778551   
     65. D(O   7,C   2,C   0,C   3)    179.7539         0.026562   
     66. D(O   7,C   2,C   0,H  11)     -0.1951         0.026562   
     67. D(C   5,C   2,C   0,C   3)     -0.0775         0.026562   
     68. D(C   5,C   2,C   0,H  11)    179.9736         0.026562   
     69. D(C   8,C   3,C   0,H  11)     -2.8447         0.023977   
     70. D(C   4,C   3,C   0,C   2)      0.0979         0.023977   
     71. D(C   8,C   3,C   0,C   2)    177.2070         0.023977   
     72. D(C   4,C   3,C   0,H  11)   -179.9538         0.023977   
     73. D(C   1,C   4,C   3,C   8)   -177.1609         0.024924   
     74. D(H  13,C   4,C   1,H  12)     -0.0275         0.025011   
     75. D(C   1,C   4,C   3,C   0)     -0.0894         0.024924   
     76. D(C   3,C   4,C   1,C   5)      0.0607         0.025011   
     77. D(H  13,C   4,C   1,C   5)    179.7911         0.025011   
     78. D(H  13,C   4,C   3,C   0)   -179.8196         0.024924   
     79. D(C   3,C   4,C   1,H  12)   -179.7580         0.025011   
     80. D(H  13,C   4,C   3,C   8)      3.1090         0.024924   
     81. D(O   6,C   5,C   2,O   7)     -0.0310         0.023114   
     82. D(C   1,C   5,C   2,O   7)   -179.7998         0.023114   
     83. D(O   6,C   5,C   1,H  12)      0.0151         0.026510   
     84. D(O   6,C   5,C   1,C   4)   -179.8073         0.026510   
     85. D(C   1,C   5,C   2,C   0)      0.0460         0.023114   
     86. D(O   6,C   5,C   2,C   0)    179.8148         0.023114   
     87. D(C   2,C   5,C   1,H  12)    179.7850         0.026510   
     88. D(C   2,C   5,C   1,C   4)     -0.0374         0.026510   
     89. D(H  14,O   6,C   5,C   2)      0.0094         0.026501   
     90. D(H  14,O   6,C   5,C   1)    179.7762         0.026501   
     91. D(H  15,O   7,C   2,C   5)    179.7659         0.025856   
     92. D(H  15,O   7,C   2,C   0)     -0.0727         0.025856   
     93. D(H  16,C   8,C   3,C   0)    161.5769         0.012096   
     94. D(C   9,C   8,C   3,C   4)    100.0786         0.012096   
     95. D(C   9,C   8,C   3,C   0)    -76.9420         0.012096   
     96. D(H  17,C   8,C   3,C   4)   -139.4700         0.012096   
     97. D(H  17,C   8,C   3,C   0)     43.5094         0.012096   
     98. D(H  16,C   8,C   3,C   4)    -21.4025         0.012096   
     99. D(H  19,C   9,C   8,H  16)    -60.2469         0.010679   
    100. D(H  19,C   9,C   8,C   3)    177.7427         0.010679   
    101. D(H  18,C   9,C   8,H  17)    -62.8493         0.010679   
    102. D(H  18,C   9,C   8,H  16)   -178.8858         0.010679   
    103. D(H  18,C   9,C   8,C   3)     59.1038         0.010679   
    104. D(N  10,C   9,C   8,H  17)    176.5846         0.010679   
    105. D(N  10,C   9,C   8,H  16)     60.5481         0.010679   
    106. D(H  19,C   9,C   8,H  17)     55.7895         0.010679   
    107. D(N  10,C   9,C   8,C   3)    -61.4622         0.010679   
    108. D(Cu 23,N  10,C   9,H  19)    -60.9796         0.014153   
    109. D(Cu 23,N  10,C   9,H  18)     55.0229         0.014153   
    110. D(Cu 23,N  10,C   9,C   8)    176.9078         0.014153   
    111. D(H  21,N  10,C   9,H  19)     62.4671         0.014153   
    112. D(H  21,N  10,C   9,H  18)    178.4697         0.014153   
    113. D(H  21,N  10,C   9,C   8)    -59.6454         0.014153   
    114. D(H  20,N  10,C   9,H  19)    176.4433         0.014153   
    115. D(H  20,N  10,C   9,H  18)    -67.5541         0.014153   
    116. D(H  20,N  10,C   9,C   8)     54.3308         0.014153   
    -----------------------------------------------------------------

Number of atoms                         .... 24
Number of degrees of freedom            .... 116

         *************************************************************
         *                GEOMETRY OPTIMIZATION CYCLE   1            *
         *************************************************************
---------------------------------
CARTESIAN COORDINATES (ANGSTROEM)
---------------------------------
  C     -0.169563   -1.057238   -0.428556
  C     -1.120496    1.566895   -0.404577
  C     -1.497669   -0.801829   -0.097896
  C      0.707329   -0.008239   -0.754192
  C      0.213674    1.302219   -0.736229
  C     -1.983349    0.522066   -0.083713
  O     -3.289694    0.782211    0.236798
  O     -2.415598   -1.770210    0.226491
  C      2.158561   -0.297413   -1.048598
  C      2.976993   -0.561117    0.224381
  N      3.001401    0.599878    1.151415
  H      0.184256   -2.092733   -0.432267
  H     -1.504342    2.588665   -0.394958
  H      0.877829    2.131218   -0.988972
  H     -3.726441   -0.072683    0.424684
  H     -1.994106   -2.648964    0.187123
  H      2.605849    0.550849   -1.590678
  H      2.249567   -1.183897   -1.696254
  H      2.558958   -1.417791    0.771136
  H      4.015348   -0.806132   -0.036241
  H      2.033299    0.877500    1.356300
  H      3.413506    1.404628    0.664960
  Cu     5.021144    0.091793    4.890004
  Cu     3.948209    0.349005    2.874777

----------------------------
CARTESIAN COORDINATES (A.U.)
----------------------------
  NO LB      ZA    FRAG     MASS         X           Y           Z
   0 C     6.0000    0    12.011   -0.320427   -1.997890   -0.809853
   1 C     6.0000    0    12.011   -2.117431    2.961002   -0.764540
   2 C     6.0000    0    12.011   -2.830183   -1.515237   -0.184997
   3 C     6.0000    0    12.011    1.336659   -0.015570   -1.425216
   4 C     6.0000    0    12.011    0.403786    2.460837   -1.391271
   5 C     6.0000    0    12.011   -3.747986    0.986561   -0.158195
   6 O     8.0000    0    15.999   -6.216621    1.478165    0.447483
   7 O     8.0000    0    15.999   -4.564819   -3.345212    0.428006
   8 C     6.0000    0    12.011    4.079089   -0.562028   -1.981564
   9 C     6.0000    0    12.011    5.625701   -1.060357    0.424018
  10 N     7.0000    0    14.007    5.671826    1.133605    2.175859
  11 H     1.0000    0     1.008    0.348193   -3.954692   -0.816866
  12 H     1.0000    0     1.008   -2.842795    4.891868   -0.746362
  13 H     1.0000    0     1.008    1.658855    4.027418   -1.868887
  14 H     1.0000    0     1.008   -7.041953   -0.137351    0.802536
  15 H     1.0000    0     1.008   -3.768313   -5.005816    0.353611
  16 H     1.0000    0     1.008    4.924342    1.040954   -3.005945
  17 H     1.0000    0     1.008    4.251066   -2.237240   -3.205456
  18 H     1.0000    0     1.008    4.835730   -2.679237    1.457235
  19 H     1.0000    0     1.008    7.587908   -1.523368   -0.068485
  20 H     1.0000    0     1.008    3.842378    1.658235    2.563036
  21 H     1.0000    0     1.008    6.450591    2.654362    1.256593
  22 Cu   29.0000    0    63.550    9.488587    0.173464    9.240768
  23 Cu   29.0000    0    63.550    7.461033    0.659524    5.432542

--------------------------------
INTERNAL COORDINATES (ANGSTROEM)
--------------------------------
 C      0   0   0     0.000000000000     0.00000000     0.00000000
 C      1   0   0     2.791221986524     0.00000000     0.00000000
 C      1   2   0     1.392276680352    60.03371424     0.00000000
 C      1   2   3     1.405480875441    60.84753132   179.94656404
 C      2   1   3     1.400020396328    59.70632073   180.00858755
 C      2   1   3     1.392528251549    60.50710088     0.02325284
 O      6   2   1     1.370015278224   120.15006386   180.20734420
 O      3   1   2     1.373165600234   124.36068376   179.80825089
 C      4   1   2     1.508764351848   120.15083541   177.15307562
 C      9   4   1     1.536178970605   112.56047238   283.05799953
 N     10   9   4     1.485899169958   113.05527969   298.53776844
 H      1   2   3     1.094281146340   178.90403141   359.84828240
 H      2   1   3     1.091533291520   179.32983818   345.47320256
 H      5   2   1     1.091887955347   119.40319765   179.77636652
 H      7   6   2     0.978208994317   107.74092956   179.77615037
 H      8   3   1     0.975404368584   109.69067227   359.92726259
 H      9   4   1     1.101573682019   109.81569005   161.57685604
 H      9   4   1     1.101632509273   110.39004824    43.50938223
 H     10   9   4     1.098901822001   110.08728384    59.10383750
 H     10   9   4     1.098242779432   110.20423368   177.74271452
 H     11  10   9     1.027751955006   108.66055658    54.33077531
 H     11  10   9     1.026688903019   108.87042191   300.35457315
 Cu    11  10   9     4.279551135798   117.38794187   176.64265794
 Cu    11  10   9     1.982261429037   116.83118261   176.90782277

---------------------------
INTERNAL COORDINATES (A.U.)
---------------------------
 C      0   0   0     0.000000000000     0.00000000     0.00000000
 C      1   0   0     5.274645133509     0.00000000     0.00000000
 C      1   2   0     2.631021628510    60.03371424     0.00000000
 C      1   2   3     2.655973941047    60.84753132   179.94656404
 C      2   1   3     2.645655130964    59.70632073   180.00858755
 C      2   1   3     2.631497029176    60.50710088     0.02325284
 O      6   2   1     2.588953675131   120.15006386   180.20734420
 O      3   1   2     2.594906920963   124.36068376   179.80825089
 C      4   1   2     2.851151425615   120.15083541   177.15307562
 C      9   4   1     2.902957547132   112.56047238   283.05799953
 N     10   9   4     2.807942493842   113.05527969   298.53776844
 H      1   2   3     2.067891680096   178.90403141   359.84828240
 H      2   1   3     2.062698987031   179.32983818   345.47320256
 H      5   2   1     2.063369204532   119.40319765   179.77636652
 H      7   6   2     1.848547100998   107.74092956   179.77615037
 H      8   3   1     1.843247126454   109.69067227   359.92726259
 H      9   4   1     2.081672575352   109.81569005   161.57685604
 H      9   4   1     2.081783742751   110.39004824    43.50938223
 H     10   9   4     2.076623491649   110.08728384    59.10383750
 H     10   9   4     2.075378081683   110.20423368   177.74271452
 H     11  10   9     1.942169728564   108.66055658    54.33077531
 H     11  10   9     1.940160851443   108.87042191   300.35457315
 Cu    11  10   9     8.087179622770   117.38794187   176.64265794
 Cu    11  10   9     3.745931226715   116.83118261   176.90782277

---------------------
BASIS SET INFORMATION
---------------------
There are 5 groups of distinct atoms

 Group   1 Type C   : 11s6p2d1f contracted to 5s3p2d1f pattern {62111/411/11/1}
 Group   2 Type O   : 11s6p2d1f contracted to 5s3p2d1f pattern {62111/411/11/1}
 Group   3 Type N   : 11s6p2d1f contracted to 5s3p2d1f pattern {62111/411/11/1}
 Group   4 Type H   : 5s1p contracted to 3s1p pattern {311/1}
 Group   5 Type Cu  : 17s11p7d1f contracted to 6s4p4d1f pattern {842111/6311/4111/1}

Atom   0C    basis set group =>   1
Atom   1C    basis set group =>   1
Atom   2C    basis set group =>   1
Atom   3C    basis set group =>   1
Atom   4C    basis set group =>   1
Atom   5C    basis set group =>   1
Atom   6O    basis set group =>   2
Atom   7O    basis set group =>   2
Atom   8C    basis set group =>   1
Atom   9C    basis set group =>   1
Atom  10N    basis set group =>   3
Atom  11H    basis set group =>   4
Atom  12H    basis set group =>   4
Atom  13H    basis set group =>   4
Atom  14H    basis set group =>   4
Atom  15H    basis set group =>   4
Atom  16H    basis set group =>   4
Atom  17H    basis set group =>   4
Atom  18H    basis set group =>   4
Atom  19H    basis set group =>   4
Atom  20H    basis set group =>   4
Atom  21H    basis set group =>   4
Atom  22Cu   basis set group =>   5
Atom  23Cu   basis set group =>   5
---------------------------------
AUXILIARY/J BASIS SET INFORMATION
---------------------------------
There are 5 groups of distinct atoms

 Group   1 Type C   : 12s5p4d2f1g contracted to 6s4p3d1f1g pattern {711111/2111/211/2/1}
 Group   2 Type O   : 12s5p4d2f1g contracted to 6s4p3d1f1g pattern {711111/2111/211/2/1}
 Group   3 Type N   : 12s5p4d2f1g contracted to 6s4p3d1f1g pattern {711111/2111/211/2/1}
 Group   4 Type H   : 5s2p1d contracted to 3s1p1d pattern {311/2/1}
 Group   5 Type Cu  : 19s5p5d3f3g contracted to 8s5p4d3f3g pattern {121111111/11111/2111/111/111}

Atom   0C    basis set group =>   1
Atom   1C    basis set group =>   1
Atom   2C    basis set group =>   1
Atom   3C    basis set group =>   1
Atom   4C    basis set group =>   1
Atom   5C    basis set group =>   1
Atom   6O    basis set group =>   2
Atom   7O    basis set group =>   2
Atom   8C    basis set group =>   1
Atom   9C    basis set group =>   1
Atom  10N    basis set group =>   3
Atom  11H    basis set group =>   4
Atom  12H    basis set group =>   4
Atom  13H    basis set group =>   4
Atom  14H    basis set group =>   4
Atom  15H    basis set group =>   4
Atom  16H    basis set group =>   4
Atom  17H    basis set group =>   4
Atom  18H    basis set group =>   4
Atom  19H    basis set group =>   4
Atom  20H    basis set group =>   4
Atom  21H    basis set group =>   4
Atom  22Cu   basis set group =>   5
Atom  23Cu   basis set group =>   5


           ************************************************************
           *        Program running with 16 parallel MPI-processes    *
           *              working on a common directory               *
           ************************************************************
------------------------------------------------------------------------------
                           ORCA GTO INTEGRAL CALCULATION
                           -- RI-GTO INTEGRALS CHOSEN --
------------------------------------------------------------------------------
------------------------------------------------------------------------------
                   ___                                                        
                  /   \      - P O W E R E D   B Y -                         
                 /     \                                                     
                 |  |  |   _    _      __       _____    __    __             
                 |  |  |  | |  | |    /  \     |  _  \  |  |  /  |          
                  \  \/   | |  | |   /    \    | | | |  |  | /  /          
                 / \  \   | |__| |  /  /\  \   | |_| |  |  |/  /          
                |  |  |   |  __  | /  /__\  \  |    /   |      \           
                |  |  |   | |  | | |   __   |  |    \   |  |\   \          
                \     /   | |  | | |  |  |  |  | |\  \  |  | \   \       
                 \___/    |_|  |_| |__|  |__|  |_| \__\ |__|  \__/        
                                                                              
                      - O R C A' S   B I G   F R I E N D -                    
                                      &                                       
                       - I N T E G R A L  F E E D E R -                       
                                                                              
 v1 FN, 2020, v2 2021                                                         
------------------------------------------------------------------------------


Reading SHARK input file neutral.SHARKINP.tmp ... ok
----------------------
SHARK INTEGRAL PACKAGE
----------------------

Number of atoms                             ...     24
Number of basis functions                   ...    497
Number of shells                            ...    195
Maximum angular momentum                    ...      3
Integral batch strategy                     ... SHARK/LIBINT Hybrid
RI-J (if used) integral strategy            ... SPLIT-RIJ (Revised 2003 algorithm where possible)
Printlevel                                  ...      1
Contraction scheme used                     ... SEGMENTED contraction
Coulomb Range Separation                    ... NOT USED
Exchange Range Separation                   ... NOT USED
Finite Nucleus Model                        ... NOT USED
Auxiliary Coulomb fitting basis             ... AVAILABLE
   # of basis functions in Aux-J            ...    842
   # of shells in Aux-J                     ...    266
   Maximum angular momentum in Aux-J        ...      4
Auxiliary J/K fitting basis                 ... NOT available
Auxiliary Correlation fitting basis         ... NOT available
Auxiliary 'external' fitting basis          ... NOT available
Integral threshold                          ...     2.500000e-11
Primitive cut-off                           ...     2.500000e-12
Primitive pair pre-selection threshold      ...     2.500000e-12

Calculating pre-screening integrals         ... done (  0.1 sec) Dimension = 195
Organizing shell pair data                  ... done (  0.4 sec)
Shell pair information
Total number of shell pairs                 ...     19110
Shell pairs after pre-screening             ...     14631
Total number of primitive shell pairs       ...     64654
Primitive shell pairs kept                  ...     32867
          la=0 lb=0:   3864 shell pairs
          la=1 lb=0:   4068 shell pairs
          la=1 lb=1:   1105 shell pairs
          la=2 lb=0:   2279 shell pairs
          la=2 lb=1:   1202 shell pairs
          la=2 lb=2:    347 shell pairs
          la=3 lb=0:    933 shell pairs
          la=3 lb=1:    496 shell pairs
          la=3 lb=2:    274 shell pairs
          la=3 lb=3:     63 shell pairs

Calculating one electron integrals          ... done (  0.0 sec)
Calculating RI/J V-Matrix + Cholesky decomp.... done (  0.0 sec)
Calculating Nuclear repulsion               ... done (  0.0 sec) ENN=   1252.376807188785 Eh

SHARK setup successfully completed in   0.9 seconds

Maximum memory used throughout the entire GTOINT-calculation: 31.0 MB


           ************************************************************
           *        Program running with 16 parallel MPI-processes    *
           *              working on a common directory               *
           ************************************************************
-------------------------------------------------------------------------------
                                 ORCA SCF
-------------------------------------------------------------------------------

------------
SCF SETTINGS
------------
Hamiltonian:
 Density Functional     Method          .... DFT(GTOs)
 Exchange Functional    Exchange        .... PBE
   PBE kappa parameter   XKappa         ....  0.804000
   PBE mue parameter    XMuePBE         ....  0.219520
 Correlation Functional Correlation     .... PBE
   PBE beta parameter  CBetaPBE         ....  0.066725
 LDA part of GGA corr.  LDAOpt          .... PW91-LDA
 Gradients option       PostSCFGGA      .... off
   Density functional embedding theory  .... OFF
   NL short-range parameter             ....  6.400000
 RI-approximation to the Coulomb term is turned on
   Number of AuxJ basis functions       .... 842


General Settings:
 Integral files         IntName         .... neutral
 Hartree-Fock type      HFTyp           .... RHF
 Total Charge           Charge          ....    0
 Multiplicity           Mult            ....    1
 Number of Electrons    NEL             ....  140
 Basis Dimension        Dim             ....  497
 Nuclear Repulsion      ENuc            ....   1252.3768071888 Eh

Convergence Acceleration:
 DIIS                   CNVDIIS         .... on
   Start iteration      DIISMaxIt       ....    12
   Startup error        DIISStart       ....  0.200000
   # of expansion vecs  DIISMaxEq       ....     5
   Bias factor          DIISBfac        ....   1.050
   Max. coefficient     DIISMaxC        ....  10.000
 Trust-Rad. Augm. Hess. CNVTRAH         .... auto
   Auto Start mean grad. ratio tolernc. ....  1.125000
   Auto Start start iteration           ....    20
   Auto Start num. interpolation iter.  ....    10
   Max. Number of Micro iterations      ....    16
   Max. Number of Macro iterations      .... Maxiter - #DIIS iter
   Number of Davidson start vectors     ....     2
   Converg. threshold I  (grad. norm)   ....   1.000e-05
   Converg. threshold II (energy diff.) ....   1.000e-08
   Grad. Scal. Fac. for Micro threshold ....   0.100
   Minimum threshold for Micro iter.    ....   0.010
   NR start threshold (gradient norm)   ....   0.001
   Initial trust radius                 ....   0.400
   Minimum AH scaling param. (alpha)    ....   1.000
   Maximum AH scaling param. (alpha)    .... 1000.000
   Orbital update algorithm             .... Taylor
   White noise on init. David. guess    .... on
   Maximum white noise                  ....   0.010
   Quad. conv. algorithm                .... NR
 SOSCF                  CNVSOSCF        .... off
 Level Shifting         CNVShift        .... on
   Level shift para.    LevelShift      ....    0.2500
   Turn off err/grad.   ShiftErr        ....    0.0010
 Zerner damping         CNVZerner       .... off
 Static damping         CNVDamp         .... on
   Fraction old density DampFac         ....    0.7000
   Max. Damping (<1)    DampMax         ....    0.9800
   Min. Damping (>=0)   DampMin         ....    0.0000
   Turn off err/grad.   DampErr         ....    0.1000
 Fernandez-Rico         CNVRico         .... off

SCF Procedure:
 Maximum # iterations   MaxIter         ....   125
 SCF integral mode      SCFMode         .... Direct
   Integral package                     .... SHARK and LIBINT hybrid scheme
 Reset frequency        DirectResetFreq ....    20
 Integral Threshold     Thresh          ....  2.500e-11 Eh
 Primitive CutOff       TCut            ....  2.500e-12 Eh

Convergence Tolerance:
 Convergence Check Mode ConvCheckMode   .... Total+1el-Energy
 Convergence forced     ConvForced      .... 0
 Energy Change          TolE            ....  1.000e-08 Eh
 1-El. energy change                    ....  1.000e-05 Eh
 DIIS Error             TolErr          ....  5.000e-07


Diagonalization of the overlap matrix:
Smallest eigenvalue                        ... 9.039e-06
Time for diagonalization                   ...    0.056 sec
Threshold for overlap eigenvalues          ... 1.000e-08
Number of eigenvalues below threshold      ... 0
Time for construction of square roots      ...    0.044 sec
Total time needed                          ...    0.102 sec

Time for model grid setup =    0.295 sec

------------------------------
INITIAL GUESS: MODEL POTENTIAL
------------------------------
Loading Hartree-Fock densities                     ... done
Calculating cut-offs                               ... done
Initializing the effective Hamiltonian             ... done
Setting up the integral package (SHARK)            ... done
Starting the Coulomb interaction                   ... done (   0.2 sec)
Reading the grid                                   ... done
Mapping shells                                     ... done
Starting the XC term evaluation                    ... done (   0.1 sec)
  promolecular density results
     # of electrons  =    139.983661144
     EX              =   -198.015001512
     EC              =     -5.449157437
     EX+EC           =   -203.464158948
Transforming the Hamiltonian                       ... done (   0.0 sec)
Diagonalizing the Hamiltonian                      ... done (   0.1 sec)
Back transforming the eigenvectors                 ... done (   0.0 sec)
Now organizing SCF variables                       ... done
                      ------------------
                      INITIAL GUESS DONE (   0.8 sec)
                      ------------------
-------------------
DFT GRID GENERATION
-------------------

General Integration Accuracy     IntAcc      ... 4.388
Radial Grid Type                 RadialGrid  ... OptM3 with GC (2021)
Angular Grid (max. ang.)         AngularGrid ... 4 (Lebedev-302)
Angular grid pruning method      GridPruning ... 4 (adaptive)
Weight generation scheme         WeightScheme... Becke
Basis function cutoff            BFCut       ... 1.0000e-11
Integration weight cutoff        WCut        ... 1.0000e-14
Angular grids for H and He will be reduced by one unit
Partially contracted basis set               ... off
Rotationally invariant grid construction     ... off

Total number of grid points                  ...   123532
Total number of batches                      ...     1945
Average number of points per batch           ...       63
Average number of grid points per atom       ...     5147
Time for grid setup =    1.136 sec


--------------------
CPCM SOLVATION MODEL
--------------------
CPCM parameters:
  Epsilon                                         ...      80.4000
  Refrac                                          ...       1.3300
  Rsolv                                           ...       1.3000
  Surface type                                    ... GAUSSIAN VDW
  Epsilon function type                           ...         CPCM
Radii:
 Radius for C  used is    3.8550 Bohr (=   2.0400 Ang.)
 Radius for O  used is    3.4469 Bohr (=   1.8240 Ang.)
 Radius for N  used is    3.5149 Bohr (=   1.8600 Ang.)
 Radius for H  used is    2.4944 Bohr (=   1.3200 Ang.)
 Radius for Cu used is    3.1747 Bohr (=   1.6800 Ang.)
Calculating surface                               ...        done! (  0.0s)
GEPOL surface points                              ...         1414
GEPOL Volume                                      ...    1494.6108
GEPOL Surface-area                                ...     862.9312
Calculating surface distance matrix               ...        done! (  0.0s)
Performing Cholesky decomposition & store         ...        done! (  0.2s)
Overall time for CPCM initialization              ...                 0.2s
--------------
SCF ITERATIONS
--------------
ITER       Energy         Delta-E        Max-DP      RMS-DP      [F,P]     Damp
               ***  Starting incremental Fock matrix formation  ***
  0  -3796.5050128520   0.000000000000 0.18864714  0.00159104  0.2261489 0.7000
  1  -3796.6759986900  -0.170985838025 0.20314639  0.00147049  0.0794750 0.7000
                               ***Turning on DIIS***
  2  -3796.7389648403  -0.062966150203 0.29988822  0.00247547  0.0542572 0.0000
  3  -3796.8401647957  -0.101199955441 0.04712775  0.00031448  0.1144486 0.7000
  4  -3796.8549629843  -0.014798188655 0.17511455  0.00119158  0.0826633 0.0000
  5  -3796.8770228900  -0.022059905618 0.02054495  0.00018086  0.0120938 0.0000
  6  -3796.8777255409  -0.000702650956 0.00757376  0.00006810  0.0018562 0.0000
  7  -3796.8777666355  -0.000041094591 0.00171800  0.00002105  0.0010199 0.0000
  8  -3796.8777701536  -0.000003518120 0.00097305  0.00001083  0.0015799 0.0000
  9  -3796.8777743264  -0.000004172736 0.00147769  0.00001551  0.0007237 0.0000
 10  -3796.8777755203  -0.000001193893 0.00101194  0.00000709  0.0002628 0.0000
 11  -3796.8777755870  -0.000000066697 0.00015493  0.00000177  0.0003290 0.0000
 12  -3796.8777757138  -0.000000126801 0.00017219  0.00000191  0.0002067 0.0000
 13  -3796.8777757578  -0.000000044014 0.00023267  0.00000209  0.0000611 0.0000
 14  -3796.8777757728  -0.000000014976 0.00017989  0.00000157  0.0000170 0.0000
 15  -3796.8777757757  -0.000000002935 0.00004734  0.00000061  0.0000207 0.0000
 16  -3796.8777757761  -0.000000000395 0.00019430  0.00000188  0.0000069 0.0000
 17  -3796.8777757703   0.000000005812 0.00012406  0.00000139  0.0000022 0.0000
                            ***DIIS convergence achieved***

               *****************************************************
               *                     SUCCESS                       *
               *           SCF CONVERGED AFTER  18 CYCLES          *
               *****************************************************


----------------
TOTAL SCF ENERGY
----------------

Total Energy       :        -3796.87777576 Eh         -103318.29688 eV

Components:
Nuclear Repulsion  :         1252.37680719 Eh           34078.90546 eV
Electronic Energy  :        -5049.25458295 Eh         -137397.20234 eV
One Electron Energy:        -7771.02502721 Eh         -211460.34143 eV
Two Electron Energy:         2721.77044426 Eh           74063.13909 eV
CPCM Dielectric    :           -0.03155460 Eh              -0.85864 eV

Virial components:
Potential Energy   :        -7586.60098177 Eh         -206441.90802 eV
Kinetic Energy     :         3789.72320601 Eh          103123.61114 eV
Virial Ratio       :            2.00188789


DFT components:
N(Alpha)           :       69.999888070523 electrons
N(Beta)            :       69.999888070523 electrons
N(Total)           :      139.999776141047 electrons
E(X)               :     -199.397036682485 Eh       
E(C)               :       -5.467541267312 Eh       
E(XC)              :     -204.864577949797 Eh       
DFET-embed. en.    :        0.000000000000 Eh       
CPCM Solvation Model Properties:
Surface-charge          :           -0.09858661
Charge-correction       :            0.00099624 Eh               0.02711 eV
Free-energy (cav+disp)  :  This term is not implemented in the current solvation scheme

---------------
SCF CONVERGENCE
---------------

  Last Energy change         ...    9.9180e-09  Tolerance :   1.0000e-08
  Last MAX-Density change    ...    1.1462e-04  Tolerance :   1.0000e-07
  Last RMS-Density change    ...    1.1279e-06  Tolerance :   5.0000e-09
  Last DIIS Error            ...    7.9445e-07  Tolerance :   5.0000e-07

             **** THE GBW FILE WAS UPDATED (neutral.gbw) ****
             **** DENSITY neutral.scfp WAS UPDATED ****
             **** ENERGY FILE WAS UPDATED (neutral.en.tmp) ****
             **** THE GBW FILE WAS UPDATED (neutral.gbw) ****
             **** DENSITY neutral.scfp WAS UPDATED ****
----------------
ORBITAL ENERGIES
----------------

  NO   OCC          E(Eh)            E(eV) 
   0   2.0000    -321.470049     -8747.6447 
   1   2.0000    -321.456962     -8747.2886 
   2   2.0000     -38.240876     -1040.5871 
   3   2.0000     -38.224542     -1040.1427 
   4   2.0000     -33.532278      -912.4597 
   5   2.0000     -33.531266      -912.4321 
   6   2.0000     -33.531249      -912.4317 
   7   2.0000     -33.515691      -912.0083 
   8   2.0000     -33.515337      -911.9987 
   9   2.0000     -33.515326      -911.9984 
  10   2.0000     -18.789201      -511.2801 
  11   2.0000     -18.782196      -511.0895 
  12   2.0000     -14.013271      -381.3205 
  13   2.0000      -9.946615      -270.6612 
  14   2.0000      -9.943111      -270.5658 
  15   2.0000      -9.914805      -269.7955 
  16   2.0000      -9.892712      -269.1944 
  17   2.0000      -9.886367      -269.0217 
  18   2.0000      -9.885674      -269.0029 
  19   2.0000      -9.884824      -268.9797 
  20   2.0000      -9.882078      -268.9050 
  21   2.0000      -4.069980      -110.7498 
  22   2.0000      -4.053336      -110.2969 
  23   2.0000      -2.607934       -70.9655 
  24   2.0000      -2.603299       -70.8394 
  25   2.0000      -2.603210       -70.8369 
  26   2.0000      -2.591196       -70.5100 
  27   2.0000      -2.586773       -70.3897 
  28   2.0000      -2.586747       -70.3890 
  29   2.0000      -0.988036       -26.8858 
  30   2.0000      -0.962054       -26.1788 
  31   2.0000      -0.835073       -22.7235 
  32   2.0000      -0.777359       -21.1530 
  33   2.0000      -0.704506       -19.1706 
  34   2.0000      -0.672715       -18.3055 
  35   2.0000      -0.645502       -17.5650 
  36   2.0000      -0.580861       -15.8060 
  37   2.0000      -0.571555       -15.5528 
  38   2.0000      -0.525072       -14.2879 
  39   2.0000      -0.498730       -13.5711 
  40   2.0000      -0.486646       -13.2423 
  41   2.0000      -0.465661       -12.6713 
  42   2.0000      -0.434703       -11.8289 
  43   2.0000      -0.415374       -11.3029 
  44   2.0000      -0.399261       -10.8644 
  45   2.0000      -0.388647       -10.5756 
  46   2.0000      -0.383471       -10.4348 
  47   2.0000      -0.382879       -10.4187 
  48   2.0000      -0.371053       -10.0969 
  49   2.0000      -0.354763        -9.6536 
  50   2.0000      -0.333726        -9.0811 
  51   2.0000      -0.326278        -8.8785 
  52   2.0000      -0.319539        -8.6951 
  53   2.0000      -0.302840        -8.2407 
  54   2.0000      -0.300700        -8.1825 
  55   2.0000      -0.294285        -8.0079 
  56   2.0000      -0.281446        -7.6585 
  57   2.0000      -0.217086        -5.9072 
  58   2.0000      -0.190349        -5.1797 
  59   2.0000      -0.189506        -5.1567 
  60   2.0000      -0.188671        -5.1340 
  61   2.0000      -0.187021        -5.0891 
  62   2.0000      -0.176142        -4.7931 
  63   2.0000      -0.176010        -4.7895 
  64   2.0000      -0.171185        -4.6582 
  65   2.0000      -0.159748        -4.3470 
  66   2.0000      -0.159721        -4.3462 
  67   2.0000      -0.155455        -4.2301 
  68   2.0000      -0.155306        -4.2261 
  69   2.0000      -0.150256        -4.0887 
  70   0.0000      -0.047095        -1.2815 
  71   0.0000      -0.039754        -1.0818 
  72   0.0000      -0.025471        -0.6931 
  73   0.0000       0.009399         0.2558 
  74   0.0000       0.010749         0.2925 
  75   0.0000       0.018826         0.5123 
  76   0.0000       0.019961         0.5432 
  77   0.0000       0.039678         1.0797 
  78   0.0000       0.049394         1.3441 
  79   0.0000       0.054135         1.4731 
  80   0.0000       0.062562         1.7024 
  81   0.0000       0.069973         1.9041 
  82   0.0000       0.080439         2.1889 
  83   0.0000       0.084426         2.2973 
  84   0.0000       0.094577         2.5736 
  85   0.0000       0.096809         2.6343 
  86   0.0000       0.102669         2.7938 
  87   0.0000       0.112599         3.0640 
  88   0.0000       0.115108         3.1323 
  89   0.0000       0.120354         3.2750 
  90   0.0000       0.128517         3.4971 
  91   0.0000       0.130384         3.5479 
  92   0.0000       0.136793         3.7223 
  93   0.0000       0.144945         3.9442 
  94   0.0000       0.156032         4.2459 
  95   0.0000       0.159720         4.3462 
  96   0.0000       0.163758         4.4561 
  97   0.0000       0.171603         4.6695 
  98   0.0000       0.179099         4.8735 
  99   0.0000       0.188579         5.1315 
 100   0.0000       0.190657         5.1880 
 101   0.0000       0.207565         5.6481 
 102   0.0000       0.213730         5.8159 
 103   0.0000       0.216074         5.8797 
 104   0.0000       0.226550         6.1647 
 105   0.0000       0.234907         6.3921 
 106   0.0000       0.240131         6.5343 
 107   0.0000       0.244292         6.6475 
 108   0.0000       0.247533         6.7357 
 109   0.0000       0.252090         6.8597 
 110   0.0000       0.253588         6.9005 
 111   0.0000       0.260403         7.0859 
 112   0.0000       0.272010         7.4018 
 113   0.0000       0.277104         7.5404 
 114   0.0000       0.285083         7.7575 
 115   0.0000       0.292821         7.9681 
 116   0.0000       0.299804         8.1581 
 117   0.0000       0.308615         8.3978 
 118   0.0000       0.310451         8.4478 
 119   0.0000       0.317493         8.6394 
 120   0.0000       0.323503         8.8030 
 121   0.0000       0.330266         8.9870 
 122   0.0000       0.331358         9.0167 
 123   0.0000       0.335502         9.1295 
 124   0.0000       0.346196         9.4205 
 125   0.0000       0.351279         9.5588 
 126   0.0000       0.361825         9.8458 
 127   0.0000       0.382270        10.4021 
 128   0.0000       0.383780        10.4432 
 129   0.0000       0.389772        10.6062 
 130   0.0000       0.392568        10.6823 
 131   0.0000       0.409083        11.1317 
 132   0.0000       0.411359        11.1937 
 133   0.0000       0.411506        11.1977 
 134   0.0000       0.419433        11.4134 
 135   0.0000       0.423293        11.5184 
 136   0.0000       0.425719        11.5844 
 137   0.0000       0.434509        11.8236 
 138   0.0000       0.446021        12.1369 
 139   0.0000       0.449821        12.2403 
 140   0.0000       0.457707        12.4548 
 141   0.0000       0.462908        12.5964 
 142   0.0000       0.473425        12.8825 
 143   0.0000       0.479173        13.0390 
 144   0.0000       0.490968        13.3599 
 145   0.0000       0.496759        13.5175 
 146   0.0000       0.511431        13.9168 
 147   0.0000       0.525107        14.2889 
 148   0.0000       0.528503        14.3813 
 149   0.0000       0.545529        14.8446 
 150   0.0000       0.549586        14.9550 
 151   0.0000       0.565249        15.3812 
 152   0.0000       0.570273        15.5179 
 153   0.0000       0.574549        15.6343 
 154   0.0000       0.586932        15.9712 
 155   0.0000       0.594650        16.1812 
 156   0.0000       0.604045        16.4369 
 157   0.0000       0.609725        16.5915 
 158   0.0000       0.619356        16.8535 
 159   0.0000       0.636200        17.3119 
 160   0.0000       0.650311        17.6959 
 161   0.0000       0.657779        17.8991 
 162   0.0000       0.690473        18.7887 
 163   0.0000       0.696872        18.9629 
 164   0.0000       0.705166        19.1885 
 165   0.0000       0.718984        19.5646 
 166   0.0000       0.725960        19.7544 
 167   0.0000       0.741844        20.1866 
 168   0.0000       0.747550        20.3419 
 169   0.0000       0.767431        20.8829 
 170   0.0000       0.781433        21.2639 
 171   0.0000       0.784961        21.3599 
 172   0.0000       0.791896        21.5486 
 173   0.0000       0.795348        21.6425 
 174   0.0000       0.811876        22.0923 
 175   0.0000       0.819776        22.3072 
 176   0.0000       0.831020        22.6132 
 177   0.0000       0.836044        22.7499 
 178   0.0000       0.839268        22.8376 
 179   0.0000       0.847100        23.0508 
 180   0.0000       0.853878        23.2352 
 181   0.0000       0.857418        23.3315 
 182   0.0000       0.864756        23.5312 
 183   0.0000       0.887728        24.1563 
 184   0.0000       0.894679        24.3455 
 185   0.0000       0.920494        25.0479 
 186   0.0000       0.926611        25.2144 
 187   0.0000       0.930159        25.3109 
 188   0.0000       0.956382        26.0245 
 189   0.0000       0.967284        26.3211 
 190   0.0000       0.974289        26.5118 
 191   0.0000       0.994279        27.0557 
 192   0.0000       1.000678        27.2298 
 193   0.0000       1.023194        27.8425 
 194   0.0000       1.038409        28.2566 
 195   0.0000       1.056515        28.7492 
 196   0.0000       1.059340        28.8261 
 197   0.0000       1.078623        29.3508 
 198   0.0000       1.081225        29.4216 
 199   0.0000       1.103310        30.0226 
 200   0.0000       1.115697        30.3596 
 201   0.0000       1.138894        30.9909 
 202   0.0000       1.147375        31.2217 
 203   0.0000       1.159939        31.5635 
 204   0.0000       1.183177        32.1959 
 205   0.0000       1.188143        32.3310 
 206   0.0000       1.206110        32.8199 
 207   0.0000       1.207713        32.8636 
 208   0.0000       1.222389        33.2629 
 209   0.0000       1.252890        34.0929 
 210   0.0000       1.256969        34.2039 
 211   0.0000       1.275080        34.6967 
 212   0.0000       1.278476        34.7891 
 213   0.0000       1.298310        35.3288 
 214   0.0000       1.300067        35.3766 
 215   0.0000       1.321864        35.9697 
 216   0.0000       1.332253        36.2525 
 217   0.0000       1.348935        36.7064 
 218   0.0000       1.362398        37.0727 
 219   0.0000       1.387719        37.7617 
 220   0.0000       1.398106        38.0444 
 221   0.0000       1.416224        38.5374 
 222   0.0000       1.433028        38.9947 
 223   0.0000       1.449487        39.4425 
 224   0.0000       1.457541        39.6617 
 225   0.0000       1.474773        40.1306 
 226   0.0000       1.492736        40.6194 
 227   0.0000       1.508062        41.0364 
 228   0.0000       1.527833        41.5744 
 229   0.0000       1.540120        41.9088 
 230   0.0000       1.548378        42.1335 
 231   0.0000       1.549067        42.1523 
 232   0.0000       1.569563        42.7100 
 233   0.0000       1.573861        42.8269 
 234   0.0000       1.586796        43.1789 
 235   0.0000       1.610810        43.8324 
 236   0.0000       1.619602        44.0716 
 237   0.0000       1.645774        44.7838 
 238   0.0000       1.661108        45.2011 
 239   0.0000       1.665915        45.3318 
 240   0.0000       1.672422        45.5089 
 241   0.0000       1.688227        45.9390 
 242   0.0000       1.692013        46.0420 
 243   0.0000       1.721309        46.8392 
 244   0.0000       1.744024        47.4573 
 245   0.0000       1.749866        47.6163 
 246   0.0000       1.769839        48.1598 
 247   0.0000       1.779343        48.4184 
 248   0.0000       1.797846        48.9219 
 249   0.0000       1.800360        48.9903 
 250   0.0000       1.811551        49.2948 
 251   0.0000       1.824608        49.6501 
 252   0.0000       1.848184        50.2917 
 253   0.0000       1.863834        50.7175 
 254   0.0000       1.878606        51.1195 
 255   0.0000       1.886426        51.3323 
 256   0.0000       1.907028        51.8929 
 257   0.0000       1.926632        52.4263 
 258   0.0000       1.947810        53.0026 
 259   0.0000       1.948669        53.0260 
 260   0.0000       1.974781        53.7365 
 261   0.0000       1.994573        54.2751 
 262   0.0000       2.003208        54.5101 
 263   0.0000       2.015295        54.8390 
 264   0.0000       2.028674        55.2030 
 265   0.0000       2.045975        55.6738 
 266   0.0000       2.061991        56.1096 
 267   0.0000       2.075076        56.4657 
 268   0.0000       2.087820        56.8125 
 269   0.0000       2.094358        56.9904 
 270   0.0000       2.095611        57.0245 
 271   0.0000       2.107358        57.3441 
 272   0.0000       2.133127        58.0453 
 273   0.0000       2.136830        58.1461 
 274   0.0000       2.158031        58.7230 
 275   0.0000       2.166510        58.9537 
 276   0.0000       2.182039        59.3763 
 277   0.0000       2.203019        59.9472 
 278   0.0000       2.210259        60.1442 
 279   0.0000       2.228303        60.6352 
 280   0.0000       2.233746        60.7833 
 281   0.0000       2.237692        60.8907 
 282   0.0000       2.272932        61.8496 
 283   0.0000       2.274666        61.8968 
 284   0.0000       2.278431        61.9993 
 285   0.0000       2.309426        62.8427 
 286   0.0000       2.330567        63.4179 
 287   0.0000       2.354259        64.0626 
 288   0.0000       2.362979        64.2999 
 289   0.0000       2.380767        64.7840 
 290   0.0000       2.392413        65.1009 
 291   0.0000       2.419196        65.8297 
 292   0.0000       2.426341        66.0241 
 293   0.0000       2.445841        66.5547 
 294   0.0000       2.456628        66.8482 
 295   0.0000       2.463978        67.0482 
 296   0.0000       2.475004        67.3483 
 297   0.0000       2.490000        67.7564 
 298   0.0000       2.529453        68.8299 
 299   0.0000       2.545469        69.2657 
 300   0.0000       2.559170        69.6386 
 301   0.0000       2.570439        69.9452 
 302   0.0000       2.577926        70.1489 
 303   0.0000       2.592226        70.5381 
 304   0.0000       2.594474        70.5992 
 305   0.0000       2.598061        70.6968 
 306   0.0000       2.613841        71.1262 
 307   0.0000       2.630132        71.5695 
 308   0.0000       2.640286        71.8458 
 309   0.0000       2.661676        72.4279 
 310   0.0000       2.670937        72.6799 
 311   0.0000       2.676228        72.8239 
 312   0.0000       2.704578        73.5953 
 313   0.0000       2.716083        73.9084 
 314   0.0000       2.726102        74.1810 
 315   0.0000       2.737074        74.4796 
 316   0.0000       2.743667        74.6590 
 317   0.0000       2.759737        75.0963 
 318   0.0000       2.768523        75.3353 
 319   0.0000       2.791219        75.9529 
 320   0.0000       2.799479        76.1777 
 321   0.0000       2.816935        76.6527 
 322   0.0000       2.831204        77.0410 
 323   0.0000       2.843596        77.3782 
 324   0.0000       2.855998        77.7157 
 325   0.0000       2.858073        77.7721 
 326   0.0000       2.887113        78.5623 
 327   0.0000       2.893658        78.7404 
 328   0.0000       2.908518        79.1448 
 329   0.0000       2.930693        79.7482 
 330   0.0000       2.945307        80.1459 
 331   0.0000       2.957855        80.4873 
 332   0.0000       2.965925        80.7069 
 333   0.0000       2.978774        81.0566 
 334   0.0000       2.998905        81.6043 
 335   0.0000       3.007030        81.8255 
 336   0.0000       3.020268        82.1857 
 337   0.0000       3.036058        82.6153 
 338   0.0000       3.051048        83.0232 
 339   0.0000       3.072395        83.6041 
 340   0.0000       3.079912        83.8087 
 341   0.0000       3.093989        84.1917 
 342   0.0000       3.106777        84.5397 
 343   0.0000       3.132309        85.2345 
 344   0.0000       3.134780        85.3017 
 345   0.0000       3.136914        85.3598 
 346   0.0000       3.161291        86.0231 
 347   0.0000       3.169865        86.2564 
 348   0.0000       3.178294        86.4858 
 349   0.0000       3.195221        86.9464 
 350   0.0000       3.206806        87.2616 
 351   0.0000       3.224477        87.7425 
 352   0.0000       3.236285        88.0638 
 353   0.0000       3.252571        88.5070 
 354   0.0000       3.265461        88.8577 
 355   0.0000       3.282914        89.3326 
 356   0.0000       3.286732        89.4365 
 357   0.0000       3.302646        89.8696 
 358   0.0000       3.315405        90.2167 
 359   0.0000       3.325699        90.4969 
 360   0.0000       3.334693        90.7416 
 361   0.0000       3.345234        91.0284 
 362   0.0000       3.360791        91.4518 
 363   0.0000       3.377644        91.9104 
 364   0.0000       3.398089        92.4667 
 365   0.0000       3.418422        93.0200 
 366   0.0000       3.427568        93.2689 
 367   0.0000       3.430156        93.3393 
 368   0.0000       3.436798        93.5200 
 369   0.0000       3.439926        93.6052 
 370   0.0000       3.455616        94.0321 
 371   0.0000       3.499960        95.2388 
 372   0.0000       3.518379        95.7400 
 373   0.0000       3.561536        96.9143 
 374   0.0000       3.564631        96.9986 
 375   0.0000       3.572345        97.2085 
 376   0.0000       3.579555        97.4046 
 377   0.0000       3.584543        97.5404 
 378   0.0000       3.594124        97.8011 
 379   0.0000       3.600854        97.9842 
 380   0.0000       3.617364        98.4335 
 381   0.0000       3.618892        98.4751 
 382   0.0000       3.622696        98.5786 
 383   0.0000       3.659683        99.5850 
 384   0.0000       3.677807       100.0782 
 385   0.0000       3.686018       100.3016 
 386   0.0000       3.699668       100.6731 
 387   0.0000       3.716758       101.1381 
 388   0.0000       3.749466       102.0282 
 389   0.0000       3.759216       102.2935 
 390   0.0000       3.766678       102.4965 
 391   0.0000       3.800741       103.4234 
 392   0.0000       3.811816       103.7248 
 393   0.0000       3.826774       104.1318 
 394   0.0000       3.844173       104.6053 
 395   0.0000       3.847734       104.7022 
 396   0.0000       3.866025       105.1999 
 397   0.0000       3.901263       106.1588 
 398   0.0000       3.920568       106.6841 
 399   0.0000       3.929683       106.9321 
 400   0.0000       3.943730       107.3144 
 401   0.0000       4.006412       109.0200 
 402   0.0000       4.021001       109.4170 
 403   0.0000       4.039874       109.9306 
 404   0.0000       4.062961       110.5588 
 405   0.0000       4.079385       111.0057 
 406   0.0000       4.106289       111.7378 
 407   0.0000       4.115122       111.9782 
 408   0.0000       4.132216       112.4433 
 409   0.0000       4.136798       112.5680 
 410   0.0000       4.151617       112.9712 
 411   0.0000       4.201872       114.3388 
 412   0.0000       4.205597       114.4401 
 413   0.0000       4.217271       114.7578 
 414   0.0000       4.227228       115.0287 
[...]
      0       0.000824  -0.002546   0.000922   0.054591   0.000002   0.000001
      1       0.000422  -0.000873   0.000207   0.022398   0.000009  -0.000007
      2       0.000052  -0.000374   0.000170   0.005695  -0.000018  -0.000003
      3       0.000223   0.002500   0.000193   0.009604  -0.000026   0.000026
      4      -0.000132  -0.000553   0.000358  -0.005130  -0.000020   0.000017
      5       0.000089   0.001135  -0.000111   0.004039  -0.000017  -0.000015
      6      -0.001721  -0.045706   0.003760  -0.003534   0.000026  -0.000031
      7      -0.000932  -0.071340   0.006345  -0.001933  -0.000005   0.000008
      8      -0.000322   0.012719  -0.001250  -0.000062  -0.000000  -0.000009
      9       0.002214  -0.001579   0.001926   0.000165   0.000023   0.000096
     10       0.000669   0.001374   0.001407   0.000385  -0.000021   0.000004
     11       0.000439  -0.001289  -0.000001  -0.000215   0.000057   0.000012
     12       0.000156  -0.000143   0.000141   0.000031  -0.000151   0.000069
     13      -0.000644  -0.000753  -0.000136   0.000009   0.000472   0.000132
     14       0.000421  -0.000180   0.000404   0.000034  -0.000206  -0.000446
     15       0.000886   0.001640   0.000030   0.000015   0.000995  -0.000078
     16      -0.000685  -0.001512   0.000004  -0.000108  -0.001748  -0.001065
     17       0.000980   0.001880  -0.000012   0.000069   0.000997   0.000696
     18      -0.000023   0.000050  -0.000006   0.000019   0.037153  -0.040851
     19       0.000026   0.000079  -0.000015   0.000002  -0.044725  -0.035000
     20      -0.000026  -0.000018  -0.000001   0.000007   0.004644   0.059958
     21       0.000266  -0.000903   0.000338  -0.000113  -0.010047  -0.009796
     22      -0.000207  -0.000066  -0.000124   0.000028  -0.007891  -0.006429
     23       0.000022  -0.000418  -0.000069  -0.000073  -0.009291   0.009799
     24      -0.000143  -0.000031  -0.000047   0.000058  -0.024254  -0.036066
     25      -0.000383  -0.000392   0.000036  -0.000051   0.633497   0.507208
     26       0.000519   0.000764  -0.000054   0.000060  -0.452579  -0.353104
     27       0.000069   0.000030  -0.000196   0.000061  -0.480913   0.611608
     28       0.000087   0.000024   0.000063  -0.000015  -0.003875  -0.013365
     29      -0.000190   0.000028   0.000074  -0.000050   0.397287  -0.485342
     30       0.026724   0.002123   0.019625  -0.001699   0.000032  -0.000009
     31      -0.056121  -0.001255  -0.035112   0.000981   0.000010  -0.000025
     32       0.036591   0.001213   0.023989  -0.001094  -0.000022   0.000011
     33       0.022816  -0.004404  -0.041306   0.002510  -0.000032   0.000026
     34       0.035840  -0.005685  -0.058902  -0.000631   0.000048  -0.000010
     35      -0.010693   0.001373   0.016246   0.000999  -0.000012   0.000013
     36       0.000668   0.000744  -0.002651  -0.005026   0.000060  -0.000034
     37      -0.000135   0.000661   0.001773   0.001745  -0.000017   0.000005
     38       0.000274  -0.000144  -0.001573  -0.001899   0.000034  -0.000015
     39       0.000098  -0.000329   0.000596   0.001907  -0.000044   0.000024
     40      -0.000099   0.000093  -0.000257  -0.002932   0.000008   0.000001
     41       0.000073  -0.000137   0.000276   0.001816  -0.000021   0.000016
     42      -0.014902   0.038039  -0.015258  -0.947756  -0.000076   0.000028
     43      -0.003852   0.011781  -0.004122  -0.273793  -0.000075   0.000038
     44      -0.002467   0.005746  -0.002532  -0.145148   0.000001  -0.000017
     45       0.011315   0.523959  -0.044769   0.022095  -0.000006   0.000103
     46       0.016481   0.827792  -0.071789   0.032803  -0.000077   0.000136
     47      -0.002423  -0.149560   0.013249  -0.005657   0.000026  -0.000007
     48      -0.004602   0.001121  -0.002554  -0.000177   0.001832   0.001416
     49       0.007199   0.000349   0.003309   0.000985  -0.003783  -0.002204
     50      -0.007041   0.000379  -0.003347  -0.000635   0.001178   0.000170
     51      -0.000204   0.002398  -0.001404   0.000302  -0.000674  -0.000277
     52       0.001529   0.006656  -0.002469  -0.000221   0.002042  -0.000763
     53       0.000232   0.005216  -0.002210   0.000151   0.002022  -0.001007
     54      -0.010154  -0.015078  -0.001645   0.000247  -0.007558   0.002331
     55      -0.000729  -0.001333   0.000032   0.000012   0.000105   0.000327
     56      -0.004030  -0.006935  -0.000141   0.000044  -0.002504   0.000108
     57      -0.001425  -0.003180   0.000157  -0.000185  -0.003326  -0.002472
     58       0.009373   0.019259   0.000118   0.001034   0.017236   0.012855
     59      -0.007915  -0.016333  -0.000087  -0.000792  -0.008939  -0.006915
     60      -0.327240  -0.011973  -0.204978   0.008224   0.000009  -0.000020
     61       0.651619   0.021516   0.401220  -0.014796   0.000170   0.000117
     62      -0.429334  -0.014504  -0.265697   0.010317  -0.000091  -0.000096
     63      -0.286238   0.045824   0.463090  -0.002877  -0.000191   0.000029
     64      -0.423351   0.067262   0.677993  -0.000225  -0.000193   0.000063
     65       0.120992  -0.019007  -0.192202  -0.000863   0.000064   0.000036
     66      -0.000000  -0.000001  -0.000001  -0.000000  -0.000009  -0.000004
     67       0.000000   0.000000   0.000000   0.000002  -0.000016  -0.000006
     68       0.000002  -0.000002   0.000003   0.000005  -0.000014   0.000004
     69      -0.000004  -0.000018   0.000018  -0.000023  -0.000014  -0.000002
     70       0.000009   0.000008   0.000012   0.000015   0.000005  -0.000000
     71      -0.000017   0.000064  -0.000054   0.000012  -0.000002  -0.000003


-----------
IR SPECTRUM
-----------

 Mode   freq       eps      Int      T**2         TX        TY        TZ
       cm**-1   L/(mol*cm) km/mol    a.u.
----------------------------------------------------------------------------
  6:     24.46   0.001302    6.58  0.016607  ( 0.053697  0.114670  0.023958)
  7:     36.38   0.000229    1.16  0.001963  ( 0.021591  0.038652 -0.001785)
  8:     52.11   0.003303   16.69  0.019783  (-0.075886 -0.034317  0.113343)
  9:     57.63   0.000147    0.74  0.000798  ( 0.008702  0.018859  0.019137)
 10:     64.93   0.001046    5.29  0.005027  (-0.012404  0.051661  0.046947)
 11:    106.63   0.002764   13.97  0.008089  ( 0.029639  0.003195  0.084855)
 12:    144.50   0.003713   18.76  0.008018  ( 0.070017 -0.006001  0.055492)
 13:    169.56   0.007960   40.22  0.014649  (-0.112552 -0.001480 -0.044486)
 14:    192.51   0.000158    0.80  0.000256  ( 0.008442 -0.001183  0.013528)
 15:    247.27   0.000750    3.79  0.000946  (-0.023378  0.018008 -0.008684)
 16:    278.17   0.007986   40.36  0.008959  (-0.014572  0.091623 -0.018755)
 17:    289.30   0.004534   22.91  0.004891  (-0.029271 -0.045630  0.044180)
 18:    308.89   0.004606   23.28  0.004653  ( 0.017973 -0.031930 -0.057540)
 19:    328.56   0.001768    8.93  0.001679  (-0.030551  0.023961  0.013107)
 20:    339.36   0.001168    5.91  0.001074  ( 0.010772 -0.016213 -0.026374)
 21:    413.11   0.000285    1.44  0.000215  ( 0.008221 -0.012087  0.001184)
 22:    427.37   0.002076   10.49  0.001516  ( 0.004748  0.010500 -0.037193)
 23:    469.97   0.000072    0.36  0.000048  (-0.002695 -0.005459  0.003285)
 24:    499.85   0.001648    8.33  0.001029  (-0.030136  0.009613 -0.005341)
 25:    589.43   0.002763   13.96  0.001463  ( 0.001603 -0.027197 -0.026842)
 26:    593.14   0.001315    6.65  0.000692  ( 0.006509 -0.010516 -0.023219)
 27:    690.69   0.003739   18.89  0.001689  ( 0.040306  0.003377  0.007287)
 28:    702.16   0.002271   11.48  0.001009  (-0.014577 -0.007262  0.027278)
 29:    729.11   0.015341   77.53  0.006566  ( 0.011069 -0.029257 -0.074749)
 30:    777.29   0.007816   39.50  0.003138  (-0.045327  0.013988 -0.029794)
 31:    781.86   0.019579   98.95  0.007815  (-0.030968  0.027167  0.078215)
 32:    822.43   0.001732    8.75  0.000657  (-0.019590  0.004953 -0.015771)
 33:    844.34   0.009386   47.43  0.003469  ( 0.041502 -0.025306 -0.033258)
 34:    857.67   0.002461   12.44  0.000895  (-0.016863  0.006921 -0.023731)
 35:    882.71   0.000105    0.53  0.000037  ( 0.002717 -0.005362  0.001049)
 36:    912.75   0.004130   20.87  0.001412  ( 0.009506 -0.001466  0.036323)
 37:    927.49   0.006659   33.65  0.002241  ( 0.012113  0.045159 -0.007379)
 38:   1008.17   0.002992   15.12  0.000926  ( 0.004265 -0.028006 -0.011123)
 39:   1062.52   0.005630   28.45  0.001653  (-0.035726 -0.016984  0.009413)
 40:   1068.33   0.000750    3.79  0.000219  (-0.009372 -0.002769 -0.011116)
 41:   1102.68   0.007538   38.09  0.002133  (-0.037864 -0.020125  0.017159)
 42:   1128.21   0.008668   43.80  0.002398  ( 0.026920 -0.040813  0.002666)
 43:   1167.32   0.003750   18.95  0.001003  ( 0.008640 -0.029548  0.007406)
 44:   1229.86   0.001163    5.88  0.000295  (-0.016294 -0.002746  0.004698)
 45:   1233.48   0.010074   50.91  0.002549  (-0.044341  0.019805 -0.013797)
 46:   1244.90   0.087070  440.02  0.021826  (-0.090801  0.111246 -0.034723)
 47:   1280.59   0.027228  137.60  0.006635  ( 0.059596 -0.044600  0.033081)
 48:   1301.65   0.041714  210.81  0.010001  ( 0.083073 -0.044886  0.032936)
 49:   1332.52   0.001215    6.14  0.000285  ( 0.004282 -0.006496  0.014969)
 50:   1350.00   0.004636   23.43  0.001072  ( 0.021250 -0.010966 -0.022358)
 51:   1376.56   0.013777   69.62  0.003123  ( 0.021166  0.050990 -0.008677)
 52:   1409.85   0.003961   20.02  0.000877  (-0.006416 -0.013591  0.025513)
 53:   1430.13   0.004166   21.05  0.000909  (-0.015127 -0.001001  0.026062)
 54:   1444.05   0.081243  410.57  0.017557  (-0.109542  0.068833 -0.028625)
 55:   1449.93   0.011736   59.31  0.002526  ( 0.003516  0.034413  0.036460)
 56:   1473.39   0.059754  301.97  0.012656  (-0.110106  0.017653  0.014862)
 57:   1528.30   0.078022  394.29  0.015931  ( 0.125418  0.012238  0.007203)
 58:   1551.25   0.002240   11.32  0.000451  ( 0.005672  0.005082 -0.019816)
 59:   1556.10   0.003844   19.43  0.000771  (-0.013688 -0.008183 -0.022727)
 60:   1569.07   0.017805   89.98  0.003541  (-0.046177  0.034539 -0.014695)
 61:   2661.73   0.531030  2683.61  0.062258  (-0.190723 -0.013125 -0.160346)
 62:   2964.59   0.011138   56.29  0.001172  ( 0.021929  0.004920  0.025834)
 63:   3008.10   0.001033    5.22  0.000107  ( 0.003459 -0.009557  0.001961)
 64:   3022.68   0.005192   26.24  0.000536  (-0.011344 -0.019628  0.004703)
 65:   3074.53   0.001571    7.94  0.000159  (-0.009411  0.004598 -0.007051)
 66:   3085.97   0.004032   20.38  0.000408  ( 0.017501 -0.003699  0.009369)
 67:   3091.83   0.001268    6.41  0.000128  (-0.001405 -0.011104 -0.001641)
 68:   3103.43   0.005705   28.83  0.000574  (-0.011236 -0.017076  0.012481)
 69:   3135.22   0.059198  299.16  0.005892  (-0.065643 -0.039611  0.003776)
 70:   3369.48   0.016231   82.02  0.001503  (-0.030387  0.023046 -0.006980)
 71:   3430.36   0.023878  120.67  0.002172  ( 0.025470  0.017558 -0.034860)

* The epsilon (eps) is given for a Dirac delta lineshape.
** The dipole moment derivative (T) already includes vibrational overlap.

The first frequency considered to be a vibration is 6
The total number of vibrations considered is 66


--------------------------
THERMOCHEMISTRY AT 298.15K
--------------------------

Temperature         ... 298.15 K
Pressure            ... 1.00 atm
Total Mass          ... 280.28 AMU

Throughout the following assumptions are being made:
  (1) The electronic state is orbitally nondegenerate
  (2) There are no thermally accessible electronically excited states
  (3) Hindered rotations indicated by low frequency modes are not
      treated as such but are treated as vibrations and this may
      cause some error
  (4) All equations used are the standard statistical mechanics
      equations for an ideal gas
  (5) All vibrations are strictly harmonic

freq.      24.46  E(vib)   ...       0.56 
freq.      36.38  E(vib)   ...       0.54 
freq.      52.11  E(vib)   ...       0.52 
freq.      57.63  E(vib)   ...       0.51 
freq.      64.93  E(vib)   ...       0.50 
freq.     106.63  E(vib)   ...       0.45 
freq.     144.50  E(vib)   ...       0.41 
freq.     169.56  E(vib)   ...       0.38 
freq.     192.51  E(vib)   ...       0.36 
freq.     247.27  E(vib)   ...       0.31 
freq.     278.17  E(vib)   ...       0.28 
freq.     289.30  E(vib)   ...       0.27 
freq.     308.89  E(vib)   ...       0.26 
freq.     328.56  E(vib)   ...       0.24 
freq.     339.36  E(vib)   ...       0.23 
freq.     413.11  E(vib)   ...       0.19 
freq.     427.37  E(vib)   ...       0.18 
freq.     469.97  E(vib)   ...       0.16 
freq.     499.85  E(vib)   ...       0.14 
freq.     589.43  E(vib)   ...       0.10 
freq.     593.14  E(vib)   ...       0.10 
freq.     690.69  E(vib)   ...       0.07 
freq.     702.16  E(vib)   ...       0.07 
freq.     729.11  E(vib)   ...       0.06 
freq.     777.29  E(vib)   ...       0.05 
freq.     781.86  E(vib)   ...       0.05 
freq.     822.43  E(vib)   ...       0.05 
freq.     844.34  E(vib)   ...       0.04 
freq.     857.67  E(vib)   ...       0.04 
freq.     882.71  E(vib)   ...       0.04 
freq.     912.75  E(vib)   ...       0.03 
freq.     927.49  E(vib)   ...       0.03 
freq.    1008.17  E(vib)   ...       0.02 
freq.    1062.52  E(vib)   ...       0.02 
freq.    1068.33  E(vib)   ...       0.02 
freq.    1102.68  E(vib)   ...       0.02 
freq.    1128.21  E(vib)   ...       0.01 
freq.    1167.32  E(vib)   ...       0.01 
freq.    1229.86  E(vib)   ...       0.01 
freq.    1233.48  E(vib)   ...       0.01 
freq.    1244.90  E(vib)   ...       0.01 
freq.    1280.59  E(vib)   ...       0.01 
freq.    1301.65  E(vib)   ...       0.01 
freq.    1332.52  E(vib)   ...       0.01 
freq.    1350.00  E(vib)   ...       0.01 
freq.    1376.56  E(vib)   ...       0.01 
freq.    1409.85  E(vib)   ...       0.00 
freq.    1430.13  E(vib)   ...       0.00 
freq.    1444.05  E(vib)   ...       0.00 
freq.    1449.93  E(vib)   ...       0.00 
freq.    1473.39  E(vib)   ...       0.00 
freq.    1528.30  E(vib)   ...       0.00 
freq.    1551.25  E(vib)   ...       0.00 
freq.    1556.10  E(vib)   ...       0.00 
freq.    1569.07  E(vib)   ...       0.00 
freq.    2661.73  E(vib)   ...       0.00 
freq.    2964.59  E(vib)   ...       0.00 
freq.    3008.10  E(vib)   ...       0.00 
freq.    3022.68  E(vib)   ...       0.00 
freq.    3074.53  E(vib)   ...       0.00 
freq.    3085.97  E(vib)   ...       0.00 
freq.    3091.83  E(vib)   ...       0.00 
freq.    3103.43  E(vib)   ...       0.00 
freq.    3135.22  E(vib)   ...       0.00 
freq.    3369.48  E(vib)   ...       0.00 
freq.    3430.36  E(vib)   ...       0.00 

------------
INNER ENERGY
------------

The inner energy is: U= E(el) + E(ZPE) + E(vib) + E(rot) + E(trans)
    E(el)   - is the total energy from the electronic structure calculation
              = E(kin-el) + E(nuc-el) + E(el-el) + E(nuc-nuc)
    E(ZPE)  - the the zero temperature vibrational energy from the frequency calculation
    E(vib)  - the the finite temperature correction to E(ZPE) due to population
              of excited vibrational states
    E(rot)  - is the rotational thermal energy
    E(trans)- is the translational thermal energy

Summary of contributions to the inner energy U:
Electronic energy                ...  -3796.90205188 Eh
Zero point energy                ...      0.17953867 Eh     112.66 kcal/mol
Thermal vibrational correction   ...      0.01184527 Eh       7.43 kcal/mol
Thermal rotational correction    ...      0.00141627 Eh       0.89 kcal/mol
Thermal translational correction ...      0.00141627 Eh       0.89 kcal/mol
-----------------------------------------------------------------------
Total thermal energy                  -3796.70783540 Eh


Summary of corrections to the electronic energy:
(perhaps to be used in another calculation)
Total thermal correction                  0.01467781 Eh       9.21 kcal/mol
Non-thermal (ZPE) correction              0.17953867 Eh     112.66 kcal/mol
-----------------------------------------------------------------------
Total correction                          0.19421649 Eh     121.87 kcal/mol


--------
ENTHALPY
--------

The enthalpy is H = U + kB*T
                kB is Boltzmann's constant
Total free energy                 ...  -3796.70783540 Eh 
Thermal Enthalpy correction       ...      0.00094421 Eh       0.59 kcal/mol
-----------------------------------------------------------------------
Total Enthalpy                    ...  -3796.70689119 Eh


Note: Only C1 symmetry has been detected, increase convergence thresholds 
      if your molecule has a higher symmetry. Symmetry factor of 1.0 is   
      used for the rotational entropy correction. 
 

Note: Rotational entropy computed according to Herzberg 
Infrared and Raman Spectra, Chapter V,1, Van Nostrand Reinhold, 1945 
Point Group:  C1, Symmetry Number:   1  
Rotational constants in cm-1:     0.021825     0.015473     0.011145 

Vibrational entropy computed according to the QRRHO of S. Grimme
Chem.Eur.J. 2012 18 9955


-------
ENTROPY
-------

The entropy contributions are T*S = T*(S(el)+S(vib)+S(rot)+S(trans))
     S(el)   - electronic entropy
     S(vib)  - vibrational entropy
     S(rot)  - rotational entropy
     S(trans)- translational entropy
The entropies will be listed as multiplied by the temperature to get
units of energy

Electronic entropy                ...      0.00000000 Eh      0.00 kcal/mol
Vibrational entropy               ...      0.02133403 Eh     13.39 kcal/mol
Rotational entropy                ...      0.01540727 Eh      9.67 kcal/mol
Translational entropy             ...      0.02033088 Eh     12.76 kcal/mol
-----------------------------------------------------------------------
Final entropy term                ...      0.05707218 Eh     35.81 kcal/mol

In case the symmetry of your molecule has not been determined correctly
or in case you have a reason to use a different symmetry number we print 
out the resulting rotational entropy values for sn=1,12 :
 --------------------------------------------------------
|  sn= 1 | S(rot)=       0.01540727 Eh      9.67 kcal/mol|
|  sn= 2 | S(rot)=       0.01475281 Eh      9.26 kcal/mol|
|  sn= 3 | S(rot)=       0.01436998 Eh      9.02 kcal/mol|
|  sn= 4 | S(rot)=       0.01409835 Eh      8.85 kcal/mol|
|  sn= 5 | S(rot)=       0.01388767 Eh      8.71 kcal/mol|
|  sn= 6 | S(rot)=       0.01371552 Eh      8.61 kcal/mol|
|  sn= 7 | S(rot)=       0.01356998 Eh      8.52 kcal/mol|
|  sn= 8 | S(rot)=       0.01344390 Eh      8.44 kcal/mol|
|  sn= 9 | S(rot)=       0.01333269 Eh      8.37 kcal/mol|
|  sn=10 | S(rot)=       0.01323321 Eh      8.30 kcal/mol|
|  sn=11 | S(rot)=       0.01314322 Eh      8.25 kcal/mol|
|  sn=12 | S(rot)=       0.01306107 Eh      8.20 kcal/mol|
 --------------------------------------------------------


-------------------
GIBBS FREE ENERGY
-------------------

The Gibbs free energy is G = H - T*S

Total enthalpy                    ...  -3796.70689119 Eh 
Total entropy correction          ...     -0.05707218 Eh    -35.81 kcal/mol
-----------------------------------------------------------------------
Final Gibbs free energy         ...  -3796.76396337 Eh

For completeness - the Gibbs free energy minus the electronic energy
G-E(el)                           ...      0.13808852 Eh     86.65 kcal/mol



Timings for individual modules:

Sum of individual times         ...     1919.364 sec (=  31.989 min)
GTO integral calculation        ...        4.911 sec (=   0.082 min)   0.3 %
SCF iterations                  ...       73.246 sec (=   1.221 min)   3.8 %
SCF Gradient evaluation         ...       15.997 sec (=   0.267 min)   0.8 %
Geometry relaxation             ...        0.136 sec (=   0.002 min)   0.0 %
Numerical frequency calculation ...     1825.074 sec (=  30.418 min)  95.1 %



                             ****ORCA TERMINATED NORMALLY****
TOTAL RUN TIME: 0 days 2 hours 24 minutes 49 seconds 816 msec
