
                                 *****************
                                 * O   R   C   A *
                                 *****************

                                            #,                                       
                                            ###                                      
                                            ####                                     
                                            #####                                    
                                            ######                                   
                                           ########,                                 
                                     ,,################,,,,,                         
                               ,,#################################,,                 
                          ,,##########################################,,             
                       ,#########################################, ''#####,          
                    ,#############################################,,   '####,        
                  ,##################################################,,,,####,       
                ,###########''''           ''''###############################       
              ,#####''   ,,,,##########,,,,          '''####'''          '####       
            ,##' ,,,,###########################,,,                        '##       
           ' ,,###''''                  '''############,,,                           
         ,,##''                                '''############,,,,        ,,,,,,###''
      ,#''                                            '''#######################'''  
     '                                                          ''''####''''         
             ,#######,   #######,   ,#######,      ##                                
            ,#'     '#,  ##    ##  ,#'     '#,    #''#        ######   ,####,        
            ##       ##  ##   ,#'  ##            #'  '#       #        #'  '#        
            ##       ##  #######   ##           ,######,      #####,   #    #        
            '#,     ,#'  ##    ##  '#,     ,#' ,#      #,         ##   #,  ,#        
             '#######'   ##     ##  '#######'  #'      '#     #####' # '####'        



                  #######################################################
                  #                        -***-                        #
                  #          Department of theory and spectroscopy      #
                  #    Directorship and core code : Frank Neese         #
                  #        Max Planck Institute fuer Kohlenforschung    #
                  #                Kaiser Wilhelm Platz 1               #
                  #                 D-45470 Muelheim/Ruhr               #
                  #                      Germany                        #
                  #                                                     #
                  #                  All rights reserved                #
                  #                        -***-                        #
                  #######################################################


                         Program Version 5.0.1 -  RELEASE  -


 With contributions from (in alphabetic order):
   Daniel Aravena         : Magnetic Suceptibility
   Michael Atanasov       : Ab Initio Ligand Field Theory (pilot matlab implementation)
   Alexander A. Auer      : GIAO ZORA, VPT2 properties, NMR spectrum
   Ute Becker             : Parallelization
   Giovanni Bistoni       : ED, misc. LED, open-shell LED, HFLD
   Martin Brehm           : Molecular dynamics
   Dmytro Bykov           : SCF Hessian
   Vijay G. Chilkuri      : MRCI spin determinant printing, contributions to CSF-ICE
   Dipayan Datta          : RHF DLPNO-CCSD density
   Achintya Kumar Dutta   : EOM-CC, STEOM-CC
   Dmitry Ganyushin       : Spin-Orbit,Spin-Spin,Magnetic field MRCI
   Miquel Garcia          : C-PCM and meta-GGA Hessian, CC/C-PCM, Gaussian charge scheme
   Yang Guo               : DLPNO-NEVPT2, F12-NEVPT2, CIM, IAO-localization
   Andreas Hansen         : Spin unrestricted coupled pair/coupled cluster methods
   Benjamin Helmich-Paris : MC-RPA, TRAH-SCF, COSX integrals
   Lee Huntington         : MR-EOM, pCC
   Robert Izsak           : Overlap fitted RIJCOSX, COSX-SCS-MP3, EOM
   Marcus Kettner         : VPT2
   Christian Kollmar      : KDIIS, OOCD, Brueckner-CCSD(T), CCSD density, CASPT2, CASPT2-K
   Simone Kossmann        : Meta GGA functionals, TD-DFT gradient, OOMP2, MP2 Hessian
   Martin Krupicka        : Initial AUTO-CI
   Lucas Lang             : DCDCAS
   Marvin Lechner         : AUTO-CI (C++ implementation), FIC-MRCC
   Dagmar Lenk            : GEPOL surface, SMD
   Dimitrios Liakos       : Extrapolation schemes; Compound Job, initial MDCI parallelization
   Dimitrios Manganas     : Further ROCIS development; embedding schemes
   Dimitrios Pantazis     : SARC Basis sets
   Anastasios Papadopoulos: AUTO-CI, single reference methods and gradients
   Taras Petrenko         : DFT Hessian,TD-DFT gradient, ASA, ECA, R-Raman, ABS, FL, XAS/XES, NRVS
   Peter Pinski           : DLPNO-MP2, DLPNO-MP2 Gradient
   Christoph Reimann      : Effective Core Potentials
   Marius Retegan         : Local ZFS, SOC
   Christoph Riplinger    : Optimizer, TS searches, QM/MM, DLPNO-CCSD(T), (RO)-DLPNO pert. Triples
   Tobias Risthaus        : Range-separated hybrids, TD-DFT gradient, RPA, STAB
   Michael Roemelt        : Original ROCIS implementation
   Masaaki Saitow         : Open-shell DLPNO-CCSD energy and density
   Barbara Sandhoefer     : DKH picture change effects
   Avijit Sen             : IP-ROCIS
   Kantharuban Sivalingam : CASSCF convergence, NEVPT2, FIC-MRCI
   Bernardo de Souza      : ESD, SOC TD-DFT
   Georgi Stoychev        : AutoAux, RI-MP2 NMR, DLPNO-MP2 response
   Willem Van den Heuvel  : Paramagnetic NMR
   Boris Wezisla          : Elementary symmetry handling
   Frank Wennmohs         : Technical directorship


 We gratefully acknowledge several colleagues who have allowed us to
 interface, adapt or use parts of their codes:
   Stefan Grimme, W. Hujo, H. Kruse, P. Pracht,  : VdW corrections, initial TS optimization,
                  C. Bannwarth, S. Ehlert          DFT functionals, gCP, sTDA/sTD-DF
   Ed Valeev, F. Pavosevic, A. Kumar             : LibInt (2-el integral package), F12 methods
   Garnet Chan, S. Sharma, J. Yang, R. Olivares  : DMRG
   Ulf Ekstrom                                   : XCFun DFT Library
   Mihaly Kallay                                 : mrcc  (arbitrary order and MRCC methods)
   Jiri Pittner, Ondrej Demel                    : Mk-CCSD
   Frank Weinhold                                : gennbo (NPA and NBO analysis)
   Christopher J. Cramer and Donald G. Truhlar   : smd solvation model
   Lars Goerigk                                  : TD-DFT with DH, B97 family of functionals
   V. Asgeirsson, H. Jonsson                     : NEB implementation
   FAccTs GmbH                                   : IRC, NEB, NEB-TS, DLPNO-Multilevel, CI-OPT
                                                   MM, QMMM, 2- and 3-layer-ONIOM, Crystal-QMMM,
                                                   LR-CPCM, SF, NACMEs, symmetry and pop. for TD-DFT,
                                                   nearIR, NL-DFT gradient (VV10), updates on ESD,
                                                   ML-optimized integration grids
   S Lehtola, MJT Oliveira, MAL Marques          : LibXC Library
   Liviu Ungur et al                             : ANISO software


 Your calculation uses the libint2 library for the computation of 2-el integrals
 For citations please refer to: http://libint.valeyev.net

 Your ORCA version has been built with support for libXC version: 5.1.0
 For citations please refer to: https://tddft.org/programs/libxc/

 This ORCA versions uses:
   CBLAS   interface :  Fast vector & matrix operations
   LAPACKE interface :  Fast linear algebra routines
   SCALAPACK package :  Parallel linear algebra routines
   Shared memory     :  Shared parallel matrices
   BLAS/LAPACK       :  OpenBLAS 0.3.15  USE64BITINT DYNAMIC_ARCH NO_AFFINITY Haswell SINGLE_THREADED
        Core in use  :  Haswell
   Copyright (c) 2011-2014, The OpenBLAS Project


Your calculation utilizes the atom-pairwise dispersion correction
with the Becke-Johnson damping scheme (D3BJ)
Cite in your paper:
S.Grimme, S.Ehrlich, L.Goerigk, J Comput Chem, (2011), 32, 1456–1465 
S.Grimme, J.Antony, S.Ehrlich and H.Krieg, J.Chem.Phys., 132, (2010), 154104 
   

================================================================================

----- Orbital basis set information -----
Your calculation utilizes the basis: def2-TZVP
   F. Weigend and R. Ahlrichs, Phys. Chem. Chem. Phys. 7, 3297 (2005).

----- AuxJ basis set information -----
Your calculation utilizes the auxiliary basis: def2/J
   F. Weigend, Phys. Chem. Chem. Phys. 8, 1057 (2006).

================================================================================
                                        WARNINGS
                       Please study these warnings very carefully!
================================================================================

WARNING: Old DensityContainer found on disk!
         Will remove this file - 
         If you want to keep old densities, please start your calculation with a different basename. 


WARNING: your system is open-shell and RHF/RKS was chosen
  ===> : WILL SWITCH to UHF/UKS


INFO   : the flag for use of the SHARK integral package has been found!

================================================================================
                                       INPUT FILE
================================================================================
NAME = ex.inp
|  1> # ! PBE D3 def2-TZVP opt PModel
|  2> # %pal nprocs=8 end
|  3> # %geom maxiter=75 end
|  4> # %base "1_M0001"
|  5> # *xyz 1 2
|  6> # 6       -1.224823000     -1.587242000      0.220921000
|  7> # 6       -0.017892000      0.791629000     -0.642482000
|  8> # 6       -1.950120000     -0.403966000      0.185336000
|  9> # 6        0.121085000     -1.577659000     -0.164105000
| 10> # 6        0.736243000     -0.388929000     -0.594533000
| 11> # 6       -1.345335000      0.773733000     -0.239305000
| 12> # 8       -3.261213000     -0.341801000      0.559007000
| 13> # 8       -2.048891000      1.941679000     -0.258944000
| 14> # 6        2.199890000     -0.366462000     -0.959628000
| 15> # 6        3.105051000     -0.278056000      0.271559000
| 16> # 7        2.816475000      0.949776000      1.061500000
| 17> # 1        1.843695000      0.946388000      1.405002000
| 18> # 1        3.427806000      1.024026000      1.884278000
| 19> # 1        2.935367000      1.805323000      0.503860000
| 20> # 1       -1.684210000     -2.518465000      0.541070000
| 21> # 1        0.403518000      1.727905000     -0.999767000
| 22> # 1        0.676081000     -2.514793000     -0.137679000
| 23> # 1       -3.584019000     -1.243249000      0.736823000
| 24> # 1       -2.961362000      1.693307000     -0.000448000
| 25> # 1        2.402267000      0.475666000     -1.633564000
| 26> # 1        2.443113000     -1.272673000     -1.527915000
| 27> # 1        2.960421000     -1.124636000      0.950005000
| 28> # 1        4.158241000     -0.224542000     -0.019249000
| 29> # 29       2.743554333      2.354205314      2.149263116
| 30> # *
| 31> 
| 32> # $new_job
| 33> # %pal nprocs=8 end
| 34> # %geom maxiter=75 end
| 35> # %base "2_M0002"
| 36> # ! PBE D3 def2-TZVP opt PModel NOAUTOSTART
| 37> # *xyz 1 2
| 38> # 6        1.293053000      1.584692000     -0.120584000
| 39> # 6       -0.021154000     -0.796401000      0.558269000
| 40> # 6        1.972497000      0.375150000     -0.152591000
| 41> # 6       -0.060079000      1.600914000      0.239173000
| 42> # 6       -0.734320000      0.410591000      0.567578000
| 43> # 6        1.315328000     -0.802827000      0.182827000
| 44> # 8        3.288363000      0.287570000     -0.503222000
| 45> # 8        1.976877000     -1.994795000      0.146051000
| 46> # 6       -2.198861000      0.441011000      0.936665000
| 47> # 6       -3.064327000     -0.516537000      0.110481000
| 48> # 7       -2.877334000     -0.277120000     -1.346384000
| 49> # 1       -1.895440000     -0.437300000     -1.619560000
| 50> # 1       -3.455176000     -0.913388000     -1.910094000
| 51> # 1       -3.113406000      0.686489000     -1.613784000
| 52> # 1        1.794400000      2.517452000     -0.364044000
| 53> # 1       -0.476087000     -1.739036000      0.852323000
| 54> # 1       -0.573714000      2.561196000      0.274344000
| 55> # 1        3.649250000      1.185516000     -0.611564000
| 56> # 1        2.902090000     -1.766172000     -0.082955000
| 57> # 1       -2.589913000      1.459076000      0.813909000
| 58> # 1       -2.297332000      0.197279000      2.001363000
| 59> # 1       -2.811007000     -1.565910000      0.287992000
| 60> # 1       -4.127075000     -0.367127000      0.323228000
| 61> # 29      -2.676638271      0.058445588     -2.838041121
| 62> # *
| 63> 
| 64> # $new_job
| 65> # %pal nprocs=8 end
| 66> # %geom maxiter=75 end
| 67> # %base "3_M0003"
| 68> # ! PBE D3 def2-TZVP opt PModel NOAUTOSTART
| 69> # *xyz 1 2
| 70> # 6       -1.052971000     -1.610853000      0.227945000
| 71> # 6       -0.155273000      1.042331000      0.386444000
| 72> # 6       -1.900177000     -0.558785000     -0.082300000
| 73> # 6        0.259072000     -1.340029000      0.616835000
| 74> # 6        0.724848000     -0.014189000      0.680298000
| 75> # 6       -1.463991000      0.758846000      0.008962000
| 76> # 8       -3.176831000     -0.835219000     -0.472397000
| 77> # 8       -2.360382000      1.743253000     -0.293590000
| 78> # 6        2.170086000      0.262382000      1.019243000
| 79> # 6        2.996341000      0.642764000     -0.212947000
| 80> # 7        2.935393000     -0.424039000     -1.248695000
| 81> # 1        1.964776000     -0.577324000     -1.563597000
| 82> # 1        3.486702000     -0.176057000     -2.080253000
| 83> # 1        3.285887000     -1.324531000     -0.898185000
| 84> # 1       -1.421674000     -2.632627000      0.179154000
| 85> # 1        0.177729000      2.074669000      0.454029000
| 86> # 1        0.901714000     -2.178378000      0.880389000
| 87> # 1       -3.606289000      0.034991000     -0.597921000
| 88> # 1       -2.015948000      2.601366000      0.008641000
| 89> # 1        2.614505000     -0.615261000      1.505430000
| 90> # 1        2.216246000      1.073063000      1.756708000
| 91> # 1        2.627447000      1.556893000     -0.688467000
| 92> # 1        4.051243000      0.772409000      0.045956000
| 93> # 29       3.535498930     -1.659267937     -2.178902006
| 94> # *
| 95> 
| 96> # $new_job
| 97> # %pal nprocs=8 end
| 98> # %geom maxiter=75 end
| 99> # %base "4_M0004"
|100> # ! PBE D3 def2-TZVP opt PModel NOAUTOSTART
|101> # *xyz 1 2
|102> # 6       -1.005565000     -1.624533000      0.076505000
|103> # 6       -0.194514000      1.030187000      0.473013000
|104> # 6       -1.891116000     -0.578507000     -0.127987000
|105> # 6        0.301543000     -1.346076000      0.477730000
|106> # 6        0.727069000     -0.016785000      0.653406000
|107> # 6       -1.498063000      0.738452000      0.083514000
|108> # 8       -3.162476000     -0.861137000     -0.530289000
|109> # 8       -2.430165000      1.716300000     -0.114208000
|110> # 6        2.161865000      0.284862000      1.018629000
|111> # 6        3.166381000     -0.209158000     -0.028304000
|112> # 7        2.839541000      0.330817000     -1.376333000
|113> # 1        2.849026000      1.358122000     -1.396175000
|114> # 1        3.503354000     -0.003076000     -2.086928000
|115> # 1        1.899330000      0.028491000     -1.675538000
|116> # 1       -1.340000000     -2.649822000     -0.062740000
|117> # 1        0.101357000      2.063126000      0.636350000
|118> # 1        0.971161000     -2.184901000      0.660773000
|119> # 1       -3.622842000      0.001218000     -0.570328000
|120> # 1       -2.123450000      2.544319000      0.294236000
|121> # 1        2.384223000     -0.177173000      1.988098000
|122> # 1        2.292698000      1.365763000      1.155292000
|123> # 1        4.180086000      0.125506000      0.210995000
|124> # 1        3.163797000     -1.299249000     -0.122765000
|125> # 29       2.983669911      0.991533070     -2.752899065
|126> # *
|127> 
|128> # $new_job
|129> %pal nprocs=8 end
|130> %geom maxiter=75 end
|131> %base "5_M0005"
|132> ! PBE D3 def2-TZVP opt PModel NOAUTOSTART
|133> *xyz 1 2
|134> 6       -1.447298000     -1.576422000     -0.061973000
|135> 6       -0.169383000      0.884365000      0.349737000
|136> 6       -2.169412000     -0.391810000     -0.118145000
|137> 6       -0.072080000     -1.529517000      0.197274000
|138> 6        0.578034000     -0.300566000      0.405171000
|139> 6       -1.530497000      0.826281000      0.084998000
|140> 8       -3.511232000     -0.368283000     -0.369633000
|141> 8       -2.237172000      1.991738000      0.025145000
|142> 6        2.060437000     -0.243537000      0.661100000
|143> 6        2.818311000      0.182206000     -0.594606000
|144> 7        4.274374000      0.267683000     -0.306472000
|145> 1        4.660055000     -0.636004000     -0.002273000
|146> 1        4.794889000      0.555021000     -1.146349000
|147> 1        4.476642000      0.960680000      0.426877000
|148> 1       -1.931280000     -2.536898000     -0.214013000
|149> 1        0.285365000      1.857301000      0.516584000
|150> 1        0.478661000     -2.467543000      0.242972000
|151> 1       -3.833228000     -1.283417000     -0.448416000
|152> 1       -3.161473000      1.716606000     -0.147217000
|153> 1        2.419916000     -1.221713000      1.004746000
|154> 1        2.255936000      0.456752000      1.483363000
|155> 1        2.699168000     -0.540426000     -1.408302000
|156> 1        2.513296000      1.172218000     -0.948103000
|157> 29       5.962749275      0.574306571      0.011687957
|158> *
|159> 
|160>                          ****END OF INPUT****
================================================================================

                       *****************************
                       * Geometry Optimization Run *
                       *****************************

Geometry optimization settings:
Update method            Update   .... BFGS
Choice of coordinates    CoordSys .... Z-matrix Internals
Initial Hessian          InHess   .... Almoef's Model

Convergence Tolerances:
Energy Change            TolE     ....  5.0000e-06 Eh
Max. Gradient            TolMAXG  ....  3.0000e-04 Eh/bohr
RMS Gradient             TolRMSG  ....  1.0000e-04 Eh/bohr
Max. Displacement        TolMAXD  ....  4.0000e-03 bohr
RMS Displacement         TolRMSD  ....  2.0000e-03 bohr
Strict Convergence                ....  False
------------------------------------------------------------------------------
                        ORCA OPTIMIZATION COORDINATE SETUP
------------------------------------------------------------------------------

The optimization will be done in new redundant internal coordinates
Making redundant internal coordinates   ...  (new redundants) done
Evaluating the initial hessian          ...  (Almloef) done
Evaluating the coordinates              ...  done
Calculating the B-matrix                .... done
Calculating the G-matrix                .... done
Diagonalizing the G-matrix              .... done
Small eigenvalue found = 1.270e-02
Small eigenvalue found = 1.950e-02
The first mode is                       ....   91
The number of degrees of freedom        ....   66

    -----------------------------------------------------------------
                    Redundant Internal Coordinates


    -----------------------------------------------------------------
         Definition                    Initial Value    Approx d2E/dq
    -----------------------------------------------------------------
      1. B(C   2,C   0)                  1.3885         0.628268   
      2. B(C   3,C   0)                  1.4002         0.601760   
      3. B(C   4,C   1)                  1.4021         0.597724   
      4. B(C   4,C   3)                  1.4058         0.589628   
      5. B(C   5,C   2)                  1.3904         0.623868   
      6. B(C   5,C   1)                  1.3878         0.629781   
      7. B(O   6,C   2)                  1.3654         0.612554   
      8. B(O   7,C   5)                  1.3643         0.615048   
      9. B(C   8,C   4)                  1.5054         0.408887   
     10. B(C   9,C   8)                  1.5272         0.377397   
     11. B(N  10,C   9)                  1.4868         0.392198   
     12. B(H  11,N  10)                  1.0286         0.404187   
     13. B(H  12,N  10)                  1.0290         0.403498   
     14. B(H  13,N  10)                  1.0291         0.403451   
     15. B(H  14,C   0)                  1.0862         0.365138   
     16. B(H  15,C   1)                  1.0868         0.364294   
     17. B(H  16,C   3)                  1.0887         0.361806   
     18. B(H  17,O   6)                  0.9733         0.495120   
     19. B(H  18,O   7)                  0.9797         0.483723   
     20. B(H  19,C   8)                  1.0973         0.350525   
     21. B(H  20,C   8)                  1.0976         0.350176   
     22. B(H  21,C   9)                  1.0948         0.353862   
     23. B(H  22,C   9)                  1.0946         0.354084   
     24. B(Cu 23,H  13)                  1.5907         0.579143   
     25. B(Cu 23,H  12)                  1.6448         0.474704   
     26. B(Cu 23,H  11)                  1.7782         0.290764   
     27. B(Cu 23,N  10)                  1.7452         1.535469   
     28. A(C   3,C   0,H  14)          119.5474         0.351957   
     29. A(C   2,C   0,H  14)          121.1321         0.354535   
     30. A(C   2,C   0,C   3)          119.3204         0.432771   
     31. A(C   4,C   1,H  15)          121.8327         0.351419   
     32. A(C   5,C   1,H  15)          118.4964         0.354541   
     33. A(C   4,C   1,C   5)          119.6692         0.432435   
     34. A(C   5,C   2,O   6)          117.6068         0.430773   
     35. A(C   0,C   2,C   5)          120.1681         0.435590   
     36. A(C   0,C   2,O   6)          122.2251         0.431317   
     37. A(C   0,C   3,C   4)          120.7216         0.427867   
     38. A(C   4,C   3,H  16)          120.8685         0.350205   
     39. A(C   0,C   3,H  16)          118.4075         0.351412   
     40. A(C   3,C   4,C   8)          120.9074         0.399489   
     41. A(C   1,C   4,C   8)          119.9764         0.400449   
     42. A(C   1,C   4,C   3)          119.1079         0.427352   
     43. A(C   1,C   5,C   2)          121.0111         0.435778   
     44. A(C   2,C   5,O   7)          120.2625         0.431087   
     45. A(C   1,C   5,O   7)          118.7263         0.431818   
     46. A(C   2,O   6,H  17)          108.8940         0.366260   
     47. A(C   5,O   7,H  18)          104.8634         0.365056   
     48. A(C   9,C   8,H  19)          110.0853         0.323427   
     49. A(C   4,C   8,H  19)          110.0022         0.327718   
     50. A(C   4,C   8,C   9)          111.0655         0.369664   
     51. A(C   4,C   8,H  20)          109.0819         0.327665   
     52. A(H  19,C   8,H  20)          106.0085         0.288347   
     53. A(C   9,C   8,H  20)          110.4694         0.323375   
     54. A(C   8,C   9,N  10)          110.0401         0.364741   
     55. A(H  21,C   9,H  22)          109.0660         0.289278   
     56. A(N  10,C   9,H  22)          106.4688         0.324068   
     57. A(C   8,C   9,H  22)          112.2958         0.323964   
     58. A(N  10,C   9,H  21)          106.7729         0.324035   
     59. A(C   8,C   9,H  21)          111.9073         0.323931   
     60. A(C   9,N  10,H  11)          111.9647         0.328394   
     61. A(H  13,N  10,Cu 23)           63.9992         0.466307   
     62. A(H  12,N  10,Cu 23)           67.0692         0.466317   
     63. A(H  11,N  10,Cu 23)           74.7929         0.466463   
     64. A(H  12,N  10,H  13)          107.1084         0.296579   
     65. A(C   9,N  10,Cu 23)          173.1574         0.523967   
     66. A(H  11,N  10,H  13)          107.8907         0.296659   
     67. A(C   9,N  10,H  13)          111.6741         0.328295   
     68. A(H  11,N  10,H  12)          107.2804         0.296665   
     69. A(C   9,N  10,H  12)          110.6872         0.328301   
     70. A(N  10,H  11,Cu 23)           71.2779         0.325292   
     71. A(N  10,H  12,Cu 23)           77.7478         0.352915   
     72. A(N  10,H  13,Cu 23)           80.4475         0.365058   
     73. A(H  12,Cu 23,H  13)           61.5267         0.439978   
     74. A(H  11,Cu 23,H  13)           58.8649         0.403121   
     75. A(N  10,Cu 23,H  13)           35.5534         0.590791   
     76. A(H  11,Cu 23,H  12)           57.7462         0.389296   
     77. A(N  10,Cu 23,H  12)           35.1829         0.568706   
     78. A(N  10,Cu 23,H  11)           33.9292         0.518331   
     79. D(O   6,C   2,C   0,C   3)    179.8482         0.027358   
     80. D(C   5,C   2,C   0,C   3)     -0.1683         0.027358   
     81. D(O   6,C   2,C   0,H  14)     -0.2493         0.027358   
     82. D(C   5,C   2,C   0,H  14)    179.7342         0.027358   
     83. D(C   4,C   3,C   0,H  14)   -179.6460         0.024971   
     84. D(C   4,C   3,C   0,C   2)      0.2581         0.024971   
     85. D(H  16,C   3,C   0,H  14)     -0.2058         0.024971   
     86. D(H  16,C   3,C   0,C   2)    179.6982         0.024971   
     87. D(C   8,C   4,C   1,C   5)    178.6251         0.024620   
     88. D(C   8,C   4,C   1,H  15)     -1.8562         0.024620   
     89. D(C   3,C   4,C   1,H  15)    179.1834         0.024620   
     90. D(C   3,C   4,C   1,C   5)     -0.3353         0.024620   
     91. D(C   1,C   4,C   3,H  16)   -179.4325         0.023924   
     92. D(C   8,C   4,C   3,C   0)   -178.9566         0.023924   
     93. D(C   8,C   4,C   3,H  16)      1.6171         0.023924   
     94. D(C   1,C   4,C   3,C   0)     -0.0062         0.023924   
     95. D(O   7,C   5,C   2,O   6)     -0.2684         0.026953   
     96. D(C   1,C   5,C   2,O   6)    179.8075         0.026953   
     97. D(O   7,C   5,C   1,C   4)   -179.4945         0.027499   
     98. D(O   7,C   5,C   1,H  15)      0.9709         0.027499   
     99. D(C   2,C   5,C   1,C   4)      0.4307         0.027499   
    100. D(O   7,C   5,C   2,C   0)    179.7473         0.026953   
    101. D(C   1,C   5,C   2,C   0)     -0.1767         0.026953   
    102. D(C   2,C   5,C   1,H  15)   -179.1039         0.027499   
    103. D(H  17,O   6,C   2,C   0)      2.6711         0.027482   
    104. D(H  17,O   6,C   2,C   5)   -177.3128         0.027482   
    105. D(H  18,O   7,C   5,C   2)      1.4214         0.027722   
    106. D(H  18,O   7,C   5,C   1)   -178.6529         0.027722   
    107. D(H  19,C   8,C   4,C   1)    160.9656         0.012385   
    108. D(C   9,C   8,C   4,C   3)    102.0373         0.012385   
    109. D(C   9,C   8,C   4,C   1)    -76.9040         0.012385   
    110. D(H  20,C   8,C   4,C   3)   -135.9718         0.012385   
    111. D(H  20,C   8,C   4,C   1)     45.0869         0.012385   
    112. D(H  19,C   8,C   4,C   3)    -20.0930         0.012385   
    113. D(H  22,C   9,C   8,H  19)   -177.8952         0.011360   
    114. D(H  22,C   9,C   8,C   4)     60.0228         0.011360   
    115. D(H  21,C   9,C   8,H  20)    175.7894         0.011360   
    116. D(H  21,C   9,C   8,H  19)     59.0509         0.011360   
    117. D(N  10,C   9,C   8,H  19)    -59.4892         0.011360   
    118. D(N  10,C   9,C   8,C   4)    178.4289         0.011360   
    119. D(H  21,C   9,C   8,C   4)    -63.0311         0.011360   
    120. D(H  22,C   9,C   8,H  20)    -61.1567         0.011360   
    121. D(N  10,C   9,C   8,H  20)     57.2494         0.011360   
    122. D(Cu 23,N  10,C   9,H  21)    128.0003         0.014939   
    123. D(Cu 23,N  10,C   9,C   8)   -110.3490         0.014939   
    124. D(H  13,N  10,C   9,H  22)     61.2333         0.014939   
    125. D(H  13,N  10,C   9,H  21)    177.6482         0.014939   
    126. D(H  13,N  10,C   9,C   8)    -60.7011         0.014939   
    127. D(H  12,N  10,C   9,H  22)    -58.0056         0.014939   
    128. D(H  12,N  10,C   9,H  21)     58.4093         0.014939   
    129. D(H  12,N  10,C   9,C   8)   -179.9400         0.014939   
    130. D(H  11,N  10,C   9,H  22)   -177.6535         0.014939   
    131. D(H  11,N  10,C   9,H  21)    -61.2386         0.014939   
    132. D(Cu 23,N  10,C   9,H  22)     11.5854         0.014939   
    133. D(H  11,N  10,C   9,C   8)     60.4121         0.014939   
    134. D(Cu 23,H  11,N  10,H  13)    -55.5890         0.220294   
    135. D(Cu 23,H  11,N  10,H  12)     59.5088         0.220294   
    136. D(Cu 23,H  11,N  10,C   9)   -178.8642         0.220294   
    137. D(Cu 23,H  12,N  10,H  13)     51.0787         0.219354   
    138. D(Cu 23,H  12,N  10,H  11)    -64.5396         0.219354   
    139. D(Cu 23,H  12,N  10,C   9)    173.0360         0.219354   
    140. D(Cu 23,H  13,N  10,H  11)     62.3461         0.219290   
    141. D(Cu 23,H  13,N  10,C   9)   -174.2020         0.219290   
    142. D(Cu 23,H  13,N  10,H  12)    -52.8651         0.219290   
    143. D(H  11,Cu 23,H  13,N  10)    -34.7242         0.010063   
    144. D(H  13,Cu 23,H  12,N  10)    -33.1784         0.007096   
    145. D(H  11,Cu 23,H  12,N  10)     36.1332         0.007096   
    146. D(H  12,Cu 23,H  11,N  10)    -37.4957         0.003496   
    147. D(H  13,Cu 23,N  10,H  12)    124.1759         0.014476   
    148. D(H  13,Cu 23,N  10,H  11)   -119.1294         0.014476   
    149. D(H  13,Cu 23,N  10,C   9)     51.9944         0.014476   
    150. D(H  12,Cu 23,N  10,H  13)   -124.1759         0.014476   
    151. D(H  12,Cu 23,N  10,H  11)    116.6947         0.014476   
    152. D(H  13,Cu 23,H  11,N  10)     36.3986         0.003496   
    153. D(H  12,Cu 23,N  10,C   9)    -72.1815         0.014476   
    154. D(H  11,Cu 23,N  10,H  13)    119.1294         0.014476   
    155. D(H  11,Cu 23,N  10,H  12)   -116.6947         0.014476   
    156. D(H  12,Cu 23,H  13,N  10)     32.8394         0.010063   
    157. D(H  11,Cu 23,N  10,C   9)    171.1238         0.014476   
    -----------------------------------------------------------------

Number of atoms                         .... 24
Number of degrees of freedom            .... 157

         *************************************************************
         *                GEOMETRY OPTIMIZATION CYCLE   1            *
         *************************************************************
---------------------------------
CARTESIAN COORDINATES (ANGSTROEM)
---------------------------------
  C     -1.447298   -1.576422   -0.061973
  C     -0.169383    0.884365    0.349737
  C     -2.169412   -0.391810   -0.118145
  C     -0.072080   -1.529517    0.197274
  C      0.578034   -0.300566    0.405171
  C     -1.530497    0.826281    0.084998
  O     -3.511232   -0.368283   -0.369633
  O     -2.237172    1.991738    0.025145
  C      2.060437   -0.243537    0.661100
  C      2.818311    0.182206   -0.594606
  N      4.274374    0.267683   -0.306472
  H      4.660055   -0.636004   -0.002273
  H      4.794889    0.555021   -1.146349
  H      4.476642    0.960680    0.426877
  H     -1.931280   -2.536898   -0.214013
  H      0.285365    1.857301    0.516584
  H      0.478661   -2.467543    0.242972
  H     -3.833228   -1.283417   -0.448416
  H     -3.161473    1.716606   -0.147217
  H      2.419916   -1.221713    1.004746
  H      2.255936    0.456752    1.483363
  H      2.699168   -0.540426   -1.408302
  H      2.513296    1.172218   -0.948103
  Cu     5.962749    0.574307    0.011688

----------------------------
CARTESIAN COORDINATES (A.U.)
----------------------------
  NO LB      ZA    FRAG     MASS         X           Y           Z
   0 C     6.0000    0    12.011   -2.734997   -2.979006   -0.117112
   1 C     6.0000    0    12.011   -0.320087    1.671208    0.660907
   2 C     6.0000    0    12.011   -4.099595   -0.740414   -0.223262
   3 C     6.0000    0    12.011   -0.136211   -2.890368    0.372794
   4 C     6.0000    0    12.011    1.092326   -0.567987    0.765662
   5 C     6.0000    0    12.011   -2.892220    1.561445    0.160623
   6 O     8.0000    0    15.999   -6.635267   -0.695954   -0.698505
   7 O     8.0000    0    15.999   -4.227642    3.763839    0.047517
   8 C     6.0000    0    12.011    3.893662   -0.460218    1.249298
   9 C     6.0000    0    12.011    5.325836    0.344319   -1.123642
  10 N     7.0000    0    14.007    8.077396    0.505848   -0.579148
  11 H     1.0000    0     1.008    8.806228   -1.201873   -0.004295
  12 H     1.0000    0     1.008    9.061027    1.048838   -2.166286
  13 H     1.0000    0     1.008    8.459627    1.815422    0.806681
  14 H     1.0000    0     1.008   -3.649590   -4.794042   -0.404426
  15 H     1.0000    0     1.008    0.539262    3.509790    0.976202
  16 H     1.0000    0     1.008    0.904538   -4.662980    0.459151
  17 H     1.0000    0     1.008   -7.243751   -2.425307   -0.847383
  18 H     1.0000    0     1.008   -5.974318    3.243915   -0.278200
  19 H     1.0000    0     1.008    4.572979   -2.308703    1.898695
  20 H     1.0000    0     1.008    4.263101    0.863136    2.803150
  21 H     1.0000    0     1.008    5.100688   -1.021257   -2.661305
  22 H     1.0000    0     1.008    4.749441    2.215171   -1.791655
  23 Cu   29.0000    0    63.550   11.267963    1.085282    0.022087

--------------------------------
INTERNAL COORDINATES (ANGSTROEM)
--------------------------------
 C      0   0   0     0.000000000000     0.00000000     0.00000000
 C      1   0   0     2.803220385680     0.00000000     0.00000000
 C      1   2   0     1.388491812408    59.60782085     0.00000000
 C      1   2   3     1.400226279413    59.71307622   179.74232072
 C      2   1   3     1.402057978475    60.45738976   180.25456183
 C      2   1   3     1.387837097852    59.21272638   359.91234832
 O      3   1   2     1.365386628861   122.22507954   180.10343788
 O      6   2   1     1.364280746798   118.72626949   180.16288854
 C      5   2   1     1.505413768467   119.97637638   178.96346526
 C      9   5   2     1.527228751812   111.06554896   283.09596376
 N     10   9   5     1.486757202590   110.04014281   178.42886234
 H     11  10   9     1.028560673627   111.96466860    60.41214235
 H     11  10   9     1.029024959172   110.68724980   180.06000732
 H     11  10   9     1.029056821383   111.67405196   299.29889507
 H      1   2   3     1.086217696643   179.20042519   202.18598627
 H      2   1   3     1.086847792936   177.60390613    17.15561163
 H      4   1   2     1.088713338286   118.40747475   179.44330717
 H      7   3   1     0.973323390791   108.89403560     2.67108601
 H      8   6   2     0.979662500593   104.86342253   181.34713841
 H      9   5   2     1.097335870066   110.00217850   160.96564220
 H      9   5   2     1.097606934969   109.08189875    45.08687909
 H     10   9   5     1.094757161333   111.90728133   296.96894547
 H     10   9   5     1.094585784385   112.29576504    60.02282219
 Cu    14  11  10     1.590654331045    80.44746854   185.79796682

---------------------------
INTERNAL COORDINATES (A.U.)
---------------------------
 C      0   0   0     0.000000000000     0.00000000     0.00000000
 C      1   0   0     5.297318821961     0.00000000     0.00000000
 C      1   2   0     2.623869264643    59.60782085     0.00000000
 C      1   2   3     2.646044193610    59.71307622   179.74232072
 C      2   1   3     2.649505603197    60.45738976   180.25456183
 C      2   1   3     2.622632033435    59.21272638   359.91234832
 O      3   1   2     2.580206795466   122.22507954   180.10343788
 O      6   2   1     2.578116981229   118.72626949   180.16288854
 C      5   2   1     2.844819740638   119.97637638   178.96346526
 C      9   5   2     2.886044084775   111.06554896   283.09596376
 N     10   9   5     2.809563940530   110.04014281   178.42886234
 H     11  10   9     1.943697985276   111.96466860    60.41214235
 H     11  10   9     1.944575357804   110.68724980   180.06000732
 H     11  10   9     1.944635568657   111.67405196   299.29889507
 H      1   2   3     2.052653968474   179.20042519   202.18598627
 H      2   1   3     2.053844677905   177.60390613    17.15561163
 H      4   1   2     2.057370047707   118.40747475   179.44330717
 H      7   3   1     1.839314648335   108.89403560     2.67108601
 H      8   6   2     1.851293829794   104.86342253   181.34713841
 H      9   5   2     2.073664271352   110.00217850   160.96564220
 H      9   5   2     2.074176509783   109.08189875    45.08687909
 H     10   9   5     2.068791218068   111.90728133   296.96894547
 H     10   9   5     2.068467362571   112.29576504    60.02282219
 Cu    14  11  10     3.005901059411    80.44746854   185.79796682

---------------------
BASIS SET INFORMATION
---------------------
There are 5 groups of distinct atoms

 Group   1 Type C   : 11s6p2d1f contracted to 5s3p2d1f pattern {62111/411/11/1}
 Group   2 Type O   : 11s6p2d1f contracted to 5s3p2d1f pattern {62111/411/11/1}
 Group   3 Type N   : 11s6p2d1f contracted to 5s3p2d1f pattern {62111/411/11/1}
 Group   4 Type H   : 5s1p contracted to 3s1p pattern {311/1}
 Group   5 Type Cu  : 17s11p7d1f contracted to 6s4p4d1f pattern {842111/6311/4111/1}

Atom   0C    basis set group =>   1
Atom   1C    basis set group =>   1
Atom   2C    basis set group =>   1
Atom   3C    basis set group =>   1
Atom   4C    basis set group =>   1
Atom   5C    basis set group =>   1
Atom   6O    basis set group =>   2
Atom   7O    basis set group =>   2
Atom   8C    basis set group =>   1
Atom   9C    basis set group =>   1
Atom  10N    basis set group =>   3
Atom  11H    basis set group =>   4
Atom  12H    basis set group =>   4
Atom  13H    basis set group =>   4
Atom  14H    basis set group =>   4
Atom  15H    basis set group =>   4
Atom  16H    basis set group =>   4
Atom  17H    basis set group =>   4
Atom  18H    basis set group =>   4
Atom  19H    basis set group =>   4
Atom  20H    basis set group =>   4
Atom  21H    basis set group =>   4
Atom  22H    basis set group =>   4
Atom  23Cu   basis set group =>   5
---------------------------------
AUXILIARY/J BASIS SET INFORMATION
---------------------------------
There are 5 groups of distinct atoms

 Group   1 Type C   : 12s5p4d2f1g contracted to 6s4p3d1f1g pattern {711111/2111/211/2/1}
 Group   2 Type O   : 12s5p4d2f1g contracted to 6s4p3d1f1g pattern {711111/2111/211/2/1}
 Group   3 Type N   : 12s5p4d2f1g contracted to 6s4p3d1f1g pattern {711111/2111/211/2/1}
 Group   4 Type H   : 5s2p1d contracted to 3s1p1d pattern {311/2/1}
 Group   5 Type Cu  : 19s5p5d3f3g contracted to 8s5p4d3f3g pattern {121111111/11111/2111/111/111}

Atom   0C    basis set group =>   1
Atom   1C    basis set group =>   1
Atom   2C    basis set group =>   1
Atom   3C    basis set group =>   1
Atom   4C    basis set group =>   1
Atom   5C    basis set group =>   1
Atom   6O    basis set group =>   2
Atom   7O    basis set group =>   2
Atom   8C    basis set group =>   1
Atom   9C    basis set group =>   1
Atom  10N    basis set group =>   3
Atom  11H    basis set group =>   4
Atom  12H    basis set group =>   4
Atom  13H    basis set group =>   4
Atom  14H    basis set group =>   4
Atom  15H    basis set group =>   4
Atom  16H    basis set group =>   4
Atom  17H    basis set group =>   4
Atom  18H    basis set group =>   4
Atom  19H    basis set group =>   4
Atom  20H    basis set group =>   4
Atom  21H    basis set group =>   4
Atom  22H    basis set group =>   4
Atom  23Cu   basis set group =>   5


           ************************************************************
           *        Program running with 8 parallel MPI-processes     *
           *              working on a common directory               *
           ************************************************************
------------------------------------------------------------------------------
                           ORCA GTO INTEGRAL CALCULATION
                           -- RI-GTO INTEGRALS CHOSEN --
------------------------------------------------------------------------------
------------------------------------------------------------------------------
                   ___                                                        
                  /   \      - P O W E R E D   B Y -                         
                 /     \                                                     
                 |  |  |   _    _      __       _____    __    __             
                 |  |  |  | |  | |    /  \     |  _  \  |  |  /  |          
                  \  \/   | |  | |   /    \    | | | |  |  | /  /          
                 / \  \   | |__| |  /  /\  \   | |_| |  |  |/  /          
                |  |  |   |  __  | /  /__\  \  |    /   |      \           
                |  |  |   | |  | | |   __   |  |    \   |  |\   \          
                \     /   | |  | | |  |  |  |  | |\  \  |  | \   \       
                 \___/    |_|  |_| |__|  |__|  |_| \__\ |__|  \__/        
                                                                              
                      - O R C A' S   B I G   F R I E N D -                    
                                      &                                       
                       - I N T E G R A L  F E E D E R -                       
                                                                              
 v1 FN, 2020, v2 2021                                                         
------------------------------------------------------------------------------


Reading SHARK input file 5_M0005.SHARKINP.tmp ... ok
----------------------
SHARK INTEGRAL PACKAGE
----------------------

Number of atoms                             ...     24
Number of basis functions                   ...    458
Number of shells                            ...    184
Maximum angular momentum                    ...      3
Integral batch strategy                     ... SHARK/LIBINT Hybrid
RI-J (if used) integral strategy            ... SPLIT-RIJ (Revised 2003 algorithm where possible)
Printlevel                                  ...      1
Contraction scheme used                     ... SEGMENTED contraction
Coulomb Range Separation                    ... NOT USED
Exchange Range Separation                   ... NOT USED
Finite Nucleus Model                        ... NOT USED
Auxiliary Coulomb fitting basis             ... AVAILABLE
   # of basis functions in Aux-J            ...    762
   # of shells in Aux-J                     ...    248
   Maximum angular momentum in Aux-J        ...      4
Auxiliary J/K fitting basis                 ... NOT available
Auxiliary Correlation fitting basis         ... NOT available
Auxiliary 'external' fitting basis          ... NOT available
Integral threshold                          ...     2.500000e-11
Primitive cut-off                           ...     2.500000e-12
Primitive pair pre-selection threshold      ...     2.500000e-12

Calculating pre-screening integrals         ... done (  0.1 sec) Dimension = 184
Organizing shell pair data                  ... done (  0.1 sec)
Shell pair information
Total number of shell pairs                 ...     17020
Shell pairs after pre-screening             ...     13384
Total number of primitive shell pairs       ...     54293
Primitive shell pairs kept                  ...     29584
          la=0 lb=0:   3686 shell pairs
          la=1 lb=0:   3802 shell pairs
          la=1 lb=1:   1008 shell pairs
          la=2 lb=0:   1973 shell pairs
          la=2 lb=1:   1019 shell pairs
          la=2 lb=2:    274 shell pairs
          la=3 lb=0:    871 shell pairs
          la=3 lb=1:    458 shell pairs
          la=3 lb=2:    232 shell pairs
          la=3 lb=3:     61 shell pairs

Calculating one electron integrals          ... done (  0.0 sec)
Calculating RI/J V-Matrix + Cholesky decomp.... done (  0.0 sec)
Calculating Nuclear repulsion               ... done (  0.0 sec) ENN=    881.322067826006 Eh

SHARK setup successfully completed in   0.3 seconds

Maximum memory used throughout the entire GTOINT-calculation: 22.9 MB


           ************************************************************
           *        Program running with 8 parallel MPI-processes     *
           *              working on a common directory               *
           ************************************************************
-------------------------------------------------------------------------------
                                 ORCA SCF
-------------------------------------------------------------------------------

------------
SCF SETTINGS
------------
Hamiltonian:
 Density Functional     Method          .... DFT(GTOs)
 Exchange Functional    Exchange        .... PBE
   PBE kappa parameter   XKappa         ....  0.804000
   PBE mue parameter    XMuePBE         ....  0.219520
 Correlation Functional Correlation     .... PBE
   PBE beta parameter  CBetaPBE         ....  0.066725
 LDA part of GGA corr.  LDAOpt          .... PW91-LDA
 Gradients option       PostSCFGGA      .... off
   Density functional embedding theory  .... OFF
   NL short-range parameter             ....  6.400000
 RI-approximation to the Coulomb term is turned on
   Number of AuxJ basis functions       .... 762


General Settings:
 Integral files         IntName         .... 5_M0005
 Hartree-Fock type      HFTyp           .... UHF
 Total Charge           Charge          ....    1
 Multiplicity           Mult            ....    2
 Number of Electrons    NEL             ....  111
 Basis Dimension        Dim             ....  458
 Nuclear Repulsion      ENuc            ....    881.3220678260 Eh

Convergence Acceleration:
 DIIS                   CNVDIIS         .... on
   Start iteration      DIISMaxIt       ....    12
   Startup error        DIISStart       ....  0.200000
   # of expansion vecs  DIISMaxEq       ....     5
   Bias factor          DIISBfac        ....   1.050
   Max. coefficient     DIISMaxC        ....  10.000
 Trust-Rad. Augm. Hess. CNVTRAH         .... auto
   Auto Start mean grad. ratio tolernc. ....  1.125000
   Auto Start start iteration           ....    20
   Auto Start num. interpolation iter.  ....    10
   Max. Number of Micro iterations      ....    16
   Max. Number of Macro iterations      .... Maxiter - #DIIS iter
   Number of Davidson start vectors     ....     2
   Converg. threshold I  (grad. norm)   ....   1.000e-05
   Converg. threshold II (energy diff.) ....   1.000e-08
   Grad. Scal. Fac. for Micro threshold ....   0.100
   Minimum threshold for Micro iter.    ....   0.010
   NR start threshold (gradient norm)   ....   0.001
   Initial trust radius                 ....   0.400
   Minimum AH scaling param. (alpha)    ....   1.000
   Maximum AH scaling param. (alpha)    .... 1000.000
   Orbital update algorithm             .... Taylor
   White noise on init. David. guess    .... on
   Maximum white noise                  ....   0.010
   Quad. conv. algorithm                .... NR
 SOSCF                  CNVSOSCF        .... off
 Level Shifting         CNVShift        .... on
   Level shift para.    LevelShift      ....    0.2500
   Turn off err/grad.   ShiftErr        ....    0.0010
 Zerner damping         CNVZerner       .... off
 Static damping         CNVDamp         .... on
   Fraction old density DampFac         ....    0.7000
   Max. Damping (<1)    DampMax         ....    0.9800
   Min. Damping (>=0)   DampMin         ....    0.0000
   Turn off err/grad.   DampErr         ....    0.1000
 Fernandez-Rico         CNVRico         .... off

SCF Procedure:
 Maximum # iterations   MaxIter         ....   125
 SCF integral mode      SCFMode         .... Direct
   Integral package                     .... SHARK and LIBINT hybrid scheme
 Reset frequency        DirectResetFreq ....    20
 Integral Threshold     Thresh          ....  2.500e-11 Eh
 Primitive CutOff       TCut            ....  2.500e-12 Eh

Convergence Tolerance:
 Convergence Check Mode ConvCheckMode   .... Total+1el-Energy
 Convergence forced     ConvForced      .... 0
 Energy Change          TolE            ....  1.000e-08 Eh
 1-El. energy change                    ....  1.000e-05 Eh
 DIIS Error             TolErr          ....  5.000e-07


Diagonalization of the overlap matrix:
Smallest eigenvalue                        ... 9.098e-06
Time for diagonalization                   ...    0.029 sec
Threshold for overlap eigenvalues          ... 1.000e-08
Number of eigenvalues below threshold      ... 0
Time for construction of square roots      ...    0.024 sec
Total time needed                          ...    0.054 sec

Time for model grid setup =    0.133 sec

------------------------------
INITIAL GUESS: MODEL POTENTIAL
------------------------------
Loading Hartree-Fock densities                     ... done
Calculating cut-offs                               ... done
Initializing the effective Hamiltonian             ... done
Setting up the integral package (SHARK)            ... done
Starting the Coulomb interaction                   ... done (   0.1 sec)
Reading the grid                                   ... done
Mapping shells                                     ... done
Starting the XC term evaluation                    ... done (   0.1 sec)
  promolecular density results
     # of electrons  =    112.001202061
     EX              =   -132.994745503
     EC              =     -4.155189756
     EX+EC           =   -137.149935259
Transforming the Hamiltonian                       ... done (   0.0 sec)
Diagonalizing the Hamiltonian                      ... done (   0.0 sec)
Back transforming the eigenvectors                 ... done (   0.0 sec)
Now organizing SCF variables                       ... done
                      ------------------
                      INITIAL GUESS DONE (   0.5 sec)
                      ------------------
-------------------
DFT GRID GENERATION
-------------------

General Integration Accuracy     IntAcc      ... 4.388
Radial Grid Type                 RadialGrid  ... OptM3 with GC (2021)
Angular Grid (max. ang.)         AngularGrid ... 4 (Lebedev-302)
Angular grid pruning method      GridPruning ... 4 (adaptive)
Weight generation scheme         WeightScheme... Becke
Basis function cutoff            BFCut       ... 1.0000e-11
Integration weight cutoff        WCut        ... 1.0000e-14
Angular grids for H and He will be reduced by one unit
Partially contracted basis set               ... off
Rotationally invariant grid construction     ... off

Total number of grid points                  ...   115416
Total number of batches                      ...     1814
Average number of points per batch           ...       63
Average number of grid points per atom       ...     4809
Time for grid setup =    0.609 sec

--------------
SCF ITERATIONS
--------------
ITER       Energy         Delta-E        Max-DP      RMS-DP      [F,P]     Damp
               ***  Starting incremental Fock matrix formation  ***
  0  -2156.4911514088   0.000000000000 0.10494039  0.00077567  0.2104938 0.7000
  1  -2156.6154049214  -0.124253512526 0.09770512  0.00069490  0.0828898 0.7000
                               ***Turning on DIIS***
  2  -2156.6601833546  -0.044778433257 0.10689674  0.00104246  0.0268129 0.0000
  3  -2156.7290714718  -0.068888117178 0.09163435  0.00059017  0.0472926 0.0000
  4  -2156.7488205107  -0.019749038919 0.02866577  0.00023105  0.0115199 0.0000
  5  -2156.7499102516  -0.001089740873 0.01172205  0.00009286  0.0120898 0.0000
  6  -2156.7501236923  -0.000213440718 0.00409534  0.00003610  0.0080036 0.0000
  7  -2156.7501895999  -0.000065907589 0.00088414  0.00001233  0.0024912 0.0000
  8  -2156.7502068542  -0.000017254312 0.01741002  0.00011977  0.0004774 0.0000
  9  -2156.7502152957  -0.000008441450 0.00033980  0.00000252  0.0020481 0.0000
 10  -2156.7502223697  -0.000007074030 0.00036778  0.00000203  0.0018144 0.0000
 11  -2156.7502260312  -0.000003661477 0.00043164  0.00000353  0.0019849 0.0000
 12  -2156.7502321023  -0.000006071148 0.00043861  0.00000346  0.0013563 0.0000
 13  -2156.7502339988  -0.000001896530 0.00336274  0.00002060  0.0019954 0.0000
 14  -2156.7502469090  -0.000012910146 0.00182068  0.00000973  0.0022167 0.0000
 15  -2156.7502577592  -0.000010850174 0.00730843  0.00004443  0.0003387 0.0000
 16  -2156.7502548131   0.000002946035 0.00094801  0.00000726  0.0008364 0.0000
 17  -2156.7502609726  -0.000006159503 0.00158148  0.00001070  0.0003904 0.0000
 18  -2156.7502649339  -0.000003961270 0.00037459  0.00000206  0.0004705 0.0000
 19  -2156.7502649900  -0.000000056058 0.00027577  0.00000247  0.0005818 0.0000
               *** Restarting incremental Fock matrix formation ***
                                   *** Resetting DIIS ***
 20  -2156.7502654108  -0.000000420827 0.00028550  0.00000292  0.0000495 0.0000
 21  -2156.7502652276   0.000000183159 0.00016163  0.00000124  0.0001700 0.0000
 22  -2156.7502654338  -0.000000206155 0.00003575  0.00000022  0.0000775 0.0000
 23  -2156.7502654460  -0.000000012182 0.00004641  0.00000049  0.0000527 0.0000
 24  -2156.7502654455   0.000000000424 0.00004995  0.00000055  0.0000140 0.0000
 25  -2156.7502654301   0.000000015407 0.00003292  0.00000032  0.0000026 0.0000
 26  -2156.7502654295   0.000000000599 0.00002326  0.00000027  0.0000017 0.0000
                            ***DIIS convergence achieved***

               *****************************************************
               *                     SUCCESS                       *
               *           SCF CONVERGED AFTER  27 CYCLES          *
               *****************************************************


----------------
TOTAL SCF ENERGY
----------------

Total Energy       :        -2156.75026543 Eh          -58688.15837 eV

Components:
Nuclear Repulsion  :          881.32206783 Eh           23981.99269 eV
Electronic Energy  :        -3038.07233326 Eh          -82670.15106 eV
One Electron Energy:        -4721.28500058 Eh         -128472.69629 eV
Two Electron Energy:         1683.21266732 Eh           45802.54523 eV

Virial components:
Potential Energy   :        -4309.69598494 Eh         -117272.78978 eV
Kinetic Energy     :         2152.94571951 Eh           58584.63141 eV
Virial Ratio       :            2.00176714


DFT components:
N(Alpha)           :       55.999949030098 electrons
N(Beta)            :       54.999938563725 electrons
N(Total)           :      110.999887593822 electrons
E(X)               :     -134.083165343531 Eh       
E(C)               :       -4.121353694094 Eh       
E(XC)              :     -138.204519037625 Eh       
DFET-embed. en.    :        0.000000000000 Eh       

---------------
SCF CONVERGENCE
---------------

  Last Energy change         ...   -9.7771e-11  Tolerance :   1.0000e-08
  Last MAX-Density change    ...    2.4398e-05  Tolerance :   1.0000e-07
  Last RMS-Density change    ...    2.8975e-07  Tolerance :   5.0000e-09
  Last DIIS Error            ...    3.5341e-07  Tolerance :   5.0000e-07

             **** THE GBW FILE WAS UPDATED (5_M0005.gbw) ****
             **** DENSITY 5_M0005.scfp WAS UPDATED ****
             **** ENERGY FILE WAS UPDATED (5_M0005.en.tmp) ****
----------------------
UHF SPIN CONTAMINATION
----------------------

Warning: in a DFT calculation there is little theoretical justification to 
         calculate <S**2> as in Hartree-Fock theory. We will do it anyways
         but you should keep in mind that the values have only limited relevance

Expectation value of <S**2>     :     0.751529
Ideal value S*(S+1) for S=0.5   :     0.750000
Deviation                       :     0.001529

             **** THE GBW FILE WAS UPDATED (5_M0005.gbw) ****
             **** DENSITY 5_M0005.scfp WAS UPDATED ****
----------------
ORBITAL ENERGIES
----------------
                 SPIN UP ORBITALS
  NO   OCC          E(Eh)            E(eV) 
   0   1.0000    -321.730308     -8754.7268 
   1   1.0000     -38.500645     -1047.6558 
   2   1.0000     -33.792589      -919.5431 
   3   1.0000     -33.790664      -919.4907 
   4   1.0000     -33.790433      -919.4844 
   5   1.0000     -18.900636      -514.3124 
   6   1.0000     -18.883518      -513.8466 
   7   1.0000     -14.320173      -389.6717 
   8   1.0000     -10.123746      -275.4811 
   9   1.0000     -10.057223      -273.6709 
  10   1.0000     -10.055919      -273.6355 
  11   1.0000     -10.053662      -273.5741 
  12   1.0000     -10.021869      -272.7089 
  13   1.0000     -10.003109      -272.1984 
  14   1.0000     -10.001946      -272.1668 
  15   1.0000     -10.001655      -272.1589 
  16   1.0000      -4.336737      -118.0086 
  17   1.0000      -2.879995       -78.3687 
  18   1.0000      -2.869695       -78.0884 
  19   1.0000      -2.867426       -78.0266 
  20   1.0000      -1.170618       -31.8541 
  21   1.0000      -1.100449       -29.9447 
  22   1.0000      -1.070128       -29.1197 
  23   1.0000      -0.918269       -24.9874 
  24   1.0000      -0.885626       -24.0991 
  25   1.0000      -0.817955       -22.2577 
  26   1.0000      -0.790886       -21.5211 
  27   1.0000      -0.780665       -21.2430 
  28   1.0000      -0.776667       -21.1342 
  29   1.0000      -0.744103       -20.2481 
  30   1.0000      -0.688030       -18.7222 
  31   1.0000      -0.665298       -18.1037 
  32   1.0000      -0.660447       -17.9717 
  33   1.0000      -0.615775       -16.7561 
  34   1.0000      -0.595641       -16.2082 
  35   1.0000      -0.584216       -15.8973 
  36   1.0000      -0.546948       -14.8832 
  37   1.0000      -0.538776       -14.6609 
  38   1.0000      -0.526997       -14.3403 
  39   1.0000      -0.506818       -13.7912 
  40   1.0000      -0.497350       -13.5336 
  41   1.0000      -0.489235       -13.3128 
  42   1.0000      -0.474920       -12.9232 
  43   1.0000      -0.455296       -12.3892 
  44   1.0000      -0.453437       -12.3386 
  45   1.0000      -0.442926       -12.0526 
  46   1.0000      -0.442523       -12.0417 
  47   1.0000      -0.436810       -11.8862 
  48   1.0000      -0.434933       -11.8351 
  49   1.0000      -0.432320       -11.7640 
  50   1.0000      -0.431149       -11.7322 
  51   1.0000      -0.418342       -11.3837 
  52   1.0000      -0.405317       -11.0292 
  53   1.0000      -0.332343        -9.0435 
  54   1.0000      -0.317550        -8.6410 
  55   1.0000      -0.300908        -8.1881 
  56   0.0000      -0.213439        -5.8080 
  57   0.0000      -0.205585        -5.5942 
  58   0.0000      -0.190104        -5.1730 
  59   0.0000      -0.157175        -4.2769 
  60   0.0000      -0.145799        -3.9674 
  61   0.0000      -0.125680        -3.4199 
  62   0.0000      -0.105737        -2.8773 
  63   0.0000      -0.104830        -2.8526 
  64   0.0000      -0.098163        -2.6712 
  65   0.0000      -0.097863        -2.6630 
  66   0.0000      -0.092119        -2.5067 
  67   0.0000      -0.074904        -2.0382 
  68   0.0000      -0.065932        -1.7941 
  69   0.0000      -0.050316        -1.3692 
  70   0.0000      -0.042379        -1.1532 
  71   0.0000      -0.034896        -0.9496 
  72   0.0000      -0.029899        -0.8136 
  73   0.0000      -0.025431        -0.6920 
  74   0.0000      -0.019153        -0.5212 
  75   0.0000      -0.009296        -0.2529 
  76   0.0000      -0.005428        -0.1477 
  77   0.0000       0.003551         0.0966 
  78   0.0000       0.013323         0.3625 
  79   0.0000       0.021694         0.5903 
  80   0.0000       0.027140         0.7385 
  81   0.0000       0.040162         1.0929 
  82   0.0000       0.051222         1.3938 
  83   0.0000       0.054689         1.4882 
  84   0.0000       0.060148         1.6367 
  85   0.0000       0.076932         2.0934 
  86   0.0000       0.083736         2.2786 
  87   0.0000       0.093875         2.5545 
  88   0.0000       0.099741         2.7141 
  89   0.0000       0.104296         2.8380 
  90   0.0000       0.107753         2.9321 
  91   0.0000       0.112515         3.0617 
  92   0.0000       0.130685         3.5561 
  93   0.0000       0.139899         3.8068 
  94   0.0000       0.145611         3.9623 
  95   0.0000       0.151993         4.1359 
  96   0.0000       0.157971         4.2986 
  97   0.0000       0.161133         4.3847 
  98   0.0000       0.177733         4.8364 
  99   0.0000       0.184347         5.0163 
 100   0.0000       0.193168         5.2564 
 101   0.0000       0.201440         5.4815 
 102   0.0000       0.206770         5.6265 
 103   0.0000       0.208159         5.6643 
 104   0.0000       0.214416         5.8346 
 105   0.0000       0.218035         5.9330 
 106   0.0000       0.226806         6.1717 
 107   0.0000       0.235570         6.4102 
 108   0.0000       0.243608         6.6289 
 109   0.0000       0.245557         6.6819 
 110   0.0000       0.255194         6.9442 
 111   0.0000       0.259322         7.0565 
 112   0.0000       0.264735         7.2038 
 113   0.0000       0.271305         7.3826 
 114   0.0000       0.281970         7.6728 
 115   0.0000       0.288519         7.8510 
 116   0.0000       0.293132         7.9765 
 117   0.0000       0.301177         8.1954 
 118   0.0000       0.304378         8.2825 
 119   0.0000       0.320884         8.7317 
 120   0.0000       0.331852         9.0301 
 121   0.0000       0.332698         9.0532 
 122   0.0000       0.347307         9.4507 
 123   0.0000       0.355749         9.6804 
 124   0.0000       0.378436        10.2978 
 125   0.0000       0.385070        10.4783 
 126   0.0000       0.391188        10.6448 
 127   0.0000       0.395592        10.7646 
 128   0.0000       0.406852        11.0710 
 129   0.0000       0.425878        11.5887 
 130   0.0000       0.434880        11.8337 
 131   0.0000       0.442912        12.0522 
 132   0.0000       0.454040        12.3550 
 133   0.0000       0.455309        12.3896 
 134   0.0000       0.463635        12.6162 
 135   0.0000       0.476241        12.9592 
 136   0.0000       0.477080        12.9820 
 137   0.0000       0.500832        13.6283 
 138   0.0000       0.510684        13.8964 
 139   0.0000       0.518609        14.1121 
 140   0.0000       0.538040        14.6408 
 141   0.0000       0.543748        14.7961 
 142   0.0000       0.549498        14.9526 
 143   0.0000       0.561091        15.2681 
 144   0.0000       0.573968        15.6185 
 145   0.0000       0.601324        16.3629 
 146   0.0000       0.606266        16.4973 
 147   0.0000       0.614187        16.7129 
 148   0.0000       0.625003        17.0072 
 149   0.0000       0.630832        17.1658 
 150   0.0000       0.641942        17.4681 
 151   0.0000       0.652612        17.7585 
 152   0.0000       0.665336        18.1047 
 153   0.0000       0.673127        18.3167 
 154   0.0000       0.675627        18.3847 
 155   0.0000       0.686407        18.6781 
 156   0.0000       0.705474        19.1969 
 157   0.0000       0.712433        19.3863 
 158   0.0000       0.723545        19.6887 
 159   0.0000       0.736248        20.0343 
 160   0.0000       0.739589        20.1252 
 161   0.0000       0.754889        20.5416 
 162   0.0000       0.759821        20.6758 
 163   0.0000       0.775966        21.1151 
 164   0.0000       0.800937        21.7946 
 165   0.0000       0.847418        23.0594 
 166   0.0000       0.856751        23.3134 
 167   0.0000       0.875325        23.8188 
 168   0.0000       0.895324        24.3630 
 169   0.0000       0.905261        24.6334 
 170   0.0000       0.919260        25.0143 
 171   0.0000       0.923698        25.1351 
 172   0.0000       0.941021        25.6065 
 173   0.0000       0.957963        26.0675 
 174   0.0000       0.970492        26.4084 
 175   0.0000       0.981624        26.7113 
 176   0.0000       0.993003        27.0210 
 177   0.0000       1.015668        27.6377 
 178   0.0000       1.024108        27.8674 
 179   0.0000       1.034199        28.1420 
 180   0.0000       1.052068        28.6282 
 181   0.0000       1.056145        28.7392 
 182   0.0000       1.076097        29.2821 
 183   0.0000       1.088889        29.6302 
 184   0.0000       1.099778        29.9265 
 185   0.0000       1.117588        30.4111 
 186   0.0000       1.126365        30.6499 
 187   0.0000       1.144334        31.1389 
 188   0.0000       1.163598        31.6631 
 189   0.0000       1.168110        31.7859 
 190   0.0000       1.187354        32.3095 
 191   0.0000       1.200063        32.6554 
 192   0.0000       1.208590        32.8874 
 193   0.0000       1.218791        33.1650 
 194   0.0000       1.225054        33.3354 
 195   0.0000       1.258771        34.2529 
 196   0.0000       1.272162        34.6173 
 197   0.0000       1.290434        35.1145 
 198   0.0000       1.313283        35.7362 
 199   0.0000       1.327248        36.1163 
 200   0.0000       1.341791        36.5120 
 201   0.0000       1.349027        36.7089 
 202   0.0000       1.368070        37.2271 
 203   0.0000       1.370330        37.2886 
 204   0.0000       1.396213        37.9929 
 205   0.0000       1.404578        38.2205 
 206   0.0000       1.425127        38.7797 
 207   0.0000       1.437807        39.1247 
 208   0.0000       1.480319        40.2815 
 209   0.0000       1.484971        40.4081 
 210   0.0000       1.491395        40.5829 
 211   0.0000       1.498972        40.7891 
 212   0.0000       1.501162        40.8487 
 213   0.0000       1.514625        41.2151 
 214   0.0000       1.518726        41.3266 
 215   0.0000       1.525743        41.5176 
 216   0.0000       1.532432        41.6996 
 217   0.0000       1.539343        41.8877 
 218   0.0000       1.569118        42.6979 
 219   0.0000       1.573650        42.8212 
 220   0.0000       1.604170        43.6517 
 221   0.0000       1.606086        43.7038 
 222   0.0000       1.625954        44.2445 
 223   0.0000       1.647867        44.8408 
 224   0.0000       1.671346        45.4797 
 225   0.0000       1.678430        45.6724 
 226   0.0000       1.689386        45.9705 
 227   0.0000       1.698158        46.2092 
 228   0.0000       1.708425        46.4886 
 229   0.0000       1.721987        46.8577 
 230   0.0000       1.730769        47.0966 
 231   0.0000       1.756028        47.7839 
 232   0.0000       1.773982        48.2725 
 233   0.0000       1.793388        48.8006 
 234   0.0000       1.815766        49.4095 
 235   0.0000       1.821894        49.5762 
 236   0.0000       1.827384        49.7257 
 237   0.0000       1.841090        50.0986 
 238   0.0000       1.871414        50.9238 
 239   0.0000       1.903599        51.7996 
 240   0.0000       1.915487        52.1230 
 241   0.0000       1.940155        52.7943 
 242   0.0000       1.945450        52.9384 
 243   0.0000       1.950889        53.0864 
 244   0.0000       1.964716        53.4626 
 245   0.0000       1.973198        53.6935 
 246   0.0000       1.985260        54.0217 
 247   0.0000       1.987670        54.0872 
 248   0.0000       2.002666        54.4953 
 249   0.0000       2.024962        55.1020 
 250   0.0000       2.037542        55.4443 
 251   0.0000       2.042185        55.5707 
 252   0.0000       2.070019        56.3281 
 253   0.0000       2.073366        56.4192 
 254   0.0000       2.106957        57.3332 
 255   0.0000       2.126170        57.8560 
 256   0.0000       2.133002        58.0419 
 257   0.0000       2.142988        58.3137 
 258   0.0000       2.147800        58.4446 
 259   0.0000       2.184605        59.4461 
 260   0.0000       2.196965        59.7825 
 261   0.0000       2.214018        60.2465 
 262   0.0000       2.229472        60.6670 
 263   0.0000       2.247863        61.1675 
 264   0.0000       2.262966        61.5784 
 265   0.0000       2.276145        61.9371 
 266   0.0000       2.299613        62.5756 
 267   0.0000       2.309245        62.8378 
 268   0.0000       2.328048        63.3494 
 269   0.0000       2.338508        63.6340 
 270   0.0000       2.349467        63.9322 
 271   0.0000       2.375207        64.6327 
 272   0.0000       2.382318        64.8262 
 273   0.0000       2.401055        65.3360 
 274   0.0000       2.412930        65.6592 
 275   0.0000       2.435054        66.2612 
 276   0.0000       2.449484        66.6538 
 277   0.0000       2.455882        66.8279 
 278   0.0000       2.472234        67.2729 
 279   0.0000       2.479254        67.4639 
 280   0.0000       2.482343        67.5480 
 281   0.0000       2.500296        68.0365 
 282   0.0000       2.509346        68.2828 
 283   0.0000       2.527245        68.7698 
 284   0.0000       2.535680        68.9994 
 285   0.0000       2.548905        69.3592 
 286   0.0000       2.555672        69.5434 
 287   0.0000       2.573010        70.0152 
 288   0.0000       2.601541        70.7915 
 289   0.0000       2.608551        70.9823 
 290   0.0000       2.614793        71.1521 
 291   0.0000       2.621446        71.3332 
 292   0.0000       2.647844        72.0515 
 293   0.0000       2.670618        72.6712 
 294   0.0000       2.679963        72.9255 
 295   0.0000       2.687596        73.1332 
 296   0.0000       2.701140        73.5017 
 297   0.0000       2.713492        73.8379 
 298   0.0000       2.724252        74.1307 
 299   0.0000       2.740990        74.5861 
 300   0.0000       2.747140        74.7535 
 301   0.0000       2.763554        75.2001 
 302   0.0000       2.794592        76.0447 
 303   0.0000       2.805479        76.3410 
 304   0.0000       2.825017        76.8726 
 305   0.0000       2.840872        77.3041 
 306   0.0000       2.850658        77.5704 
 307   0.0000       2.863296        77.9142 
 308   0.0000       2.865291        77.9685 
 309   0.0000       2.894375        78.7600 
 310   0.0000       2.912447        79.2517 
 311   0.0000       2.916640        79.3658 
 312   0.0000       2.939215        79.9801 
 313   0.0000       2.942885        80.0800 
 314   0.0000       2.968273        80.7708 
 315   0.0000       2.972894        80.8966 
 316   0.0000       2.983291        81.1795 
 317   0.0000       2.991539        81.4039 
 318   0.0000       3.004380        81.7533 
 319   0.0000       3.013114        81.9910 
 320   0.0000       3.033455        82.5445 
 321   0.0000       3.037106        82.6438 
 322   0.0000       3.046184        82.8909 
 323   0.0000       3.061590        83.3101 
 324   0.0000       3.082955        83.8915 
 325   0.0000       3.106001        84.5186 
 326   0.0000       3.112891        84.7061 
 327   0.0000       3.128915        85.1421 
 328   0.0000       3.134669        85.2987 
 329   0.0000       3.150470        85.7286 
 330   0.0000       3.172034        86.3154 
 331   0.0000       3.174548        86.3838 
 332   0.0000       3.199168        87.0538 
 333   0.0000       3.208336        87.3033 
 334   0.0000       3.228819        87.8606 
 335   0.0000       3.239464        88.1503 
 336   0.0000       3.247038        88.3564 
 337   0.0000       3.254834        88.5685 
 338   0.0000       3.277083        89.1740 
 339   0.0000       3.281536        89.2951 
 340   0.0000       3.294246        89.6410 
 341   0.0000       3.313713        90.1707 
 342   0.0000       3.324974        90.4771 
 343   0.0000       3.332710        90.6877 
 344   0.0000       3.334972        90.7492 
 345   0.0000       3.341210        90.9189 
 346   0.0000       3.348789        91.1252 
 347   0.0000       3.370341        91.7117 
 348   0.0000       3.387240        92.1715 
 349   0.0000       3.401664        92.5640 
 350   0.0000       3.435578        93.4868 
 351   0.0000       3.454319        93.9968 
 352   0.0000       3.472488        94.4912 
 353   0.0000       3.483961        94.8034 
 354   0.0000       3.506380        95.4135 
 355   0.0000       3.521316        95.8199 
 356   0.0000       3.523769        95.8866 
 357   0.0000       3.572363        97.2089 
 358   0.0000       3.584398        97.5364 
 359   0.0000       3.619608        98.4945 
 360   0.0000       3.639009        99.0225 
 361   0.0000       3.669628        99.8556 
 362   0.0000       3.692546       100.4793 
 363   0.0000       3.717995       101.1718 
 364   0.0000       3.728915       101.4689 
 365   0.0000       3.751218       102.0758 
 366   0.0000       3.807153       103.5979 
 367   0.0000       3.828738       104.1852 
 368   0.0000       3.833965       104.3275 
 369   0.0000       3.861938       105.0887 
 370   0.0000       3.873909       105.4144 
 371   0.0000       3.933364       107.0323 
 372   0.0000       3.942739       107.2874 
 373   0.0000       3.967386       107.9581 
 374   0.0000       3.971952       108.0823 
 375   0.0000       3.980243       108.3079 
 376   0.0000       3.992930       108.6532 
 377   0.0000       4.018825       109.3578 
 378   0.0000       4.024349       109.5081 
 379   0.0000       4.060883       110.5022 
 380   0.0000       4.094556       111.4185 
 381   0.0000       4.113506       111.9342 
 382   0.0000       4.131113       112.4133 
 383   0.0000       4.136075       112.5483 
 384   0.0000       4.185265       113.8869 
 385   0.0000       4.236889       115.2916 
 386   0.0000       4.256419       115.8231 
 387   0.0000       4.281179       116.4968 
 388   0.0000       4.342757       118.1724 
 389   0.0000       4.374376       119.0328 
 390   0.0000       4.397054       119.6499 
 391   0.0000       4.400864       119.7536 
 392   0.0000       4.428165       120.4965 
 393   0.0000       4.459032       121.3364 
 394   0.0000       4.504622       122.5770 
 395   0.0000       4.542145       123.5980 
 396   0.0000       4.570860       124.3794 
 397   0.0000       4.588025       124.8465 
 398   0.0000       4.619393       125.7001 
 399   0.0000       4.654970       126.6682 
 400   0.0000       4.671712       127.1238 
 401   0.0000       4.684681       127.4766 
 402   0.0000       4.713241       128.2538 
 403   0.0000       4.753902       129.3602 
 404   0.0000       4.792976       130.4235 
 405   0.0000       4.805155       130.7549 
 406   0.0000       4.880615       132.8083 
 407   0.0000       4.939962       134.4232 
 408   0.0000       5.003370       136.1486 
 409   0.0000       5.006595       136.2364 
 410   0.0000       5.037079       137.0659 
 411   0.0000       5.068318       137.9159 
 412   0.0000       5.126721       139.5052 
 413   0.0000       5.137188       139.7900 
 414   0.0000       5.181485       140.9954 
 415   0.0000       5.195762       141.3839 
 416   0.0000       5.226235       142.2131 
 417   0.0000       5.267890       143.3466 
 418   0.0000       5.286397       143.8502 
 419   0.0000       5.350447       145.5931 
 420   0.0000       5.410163       147.2180 
 421   0.0000       5.421364       147.5228 
 422   0.0000       5.424991       147.6215 
 423   0.0000       5.447832       148.2430 
 424   0.0000       5.451290       148.3371 
 425   0.0000       5.473739       148.9480 
 426   0.0000       5.535468       150.6277 
 427   0.0000       5.615263       152.7991 
 428   0.0000       5.624935       153.0623 
 429   0.0000       5.648634       153.7071 
 430   0.0000       5.665285       154.1602 
 431   0.0000       5.779153       157.2587 
 432   0.0000       5.886108       160.1691 
 433   0.0000       5.963510       162.2754 
 434   0.0000       6.052939       164.7088 
 435   0.0000       6.144318       167.1954 
 436   0.0000       6.166436       167.7973 
 437   0.0000       6.201658       168.7557 
 438   0.0000       6.326097       172.1418 
 439   0.0000       6.422158       174.7558 
 440   0.0000       6.524637       177.5444 
 441   0.0000       6.558570       178.4678 
 442   0.0000       6.595627       179.4761 
 443   0.0000       6.749910       183.6744 
 444   0.0000       6.769831       184.2165 
 445   0.0000       6.992266       190.2692 
 446   0.0000       7.119600       193.7342 
 447   0.0000      21.790360       592.9458 
 448   0.0000      21.994178       598.4920 
 449   0.0000      22.131250       602.2219 
 450   0.0000      22.300853       606.8371 
 451   0.0000      22.374093       608.8300 
 452   0.0000      22.507132       612.4502 
 453   0.0000      22.604147       615.0901 
 454   0.0000      23.034443       626.7991 
 455   0.0000      31.573293       859.1530 
 456   0.0000      43.341188      1179.3737 
 457   0.0000      43.567319      1185.5270 

                 SPIN DOWN ORBITALS
  NO   OCC          E(Eh)            E(eV) 
   0   1.0000    -321.729498     -8754.7047 
   1   1.0000     -38.498874     -1047.6076 
   2   1.0000     -33.790015      -919.4730 
   3   1.0000     -33.789851      -919.4686 
   4   1.0000     -33.789290      -919.4533 
   5   1.0000     -18.900514      -514.3091 
   6   1.0000     -18.883473      -513.8454 
   7   1.0000     -14.317781      -389.6066 
   8   1.0000     -10.122778      -275.4548 
   9   1.0000     -10.057109      -273.6679 
  10   1.0000     -10.055926      -273.6357 
  11   1.0000     -10.053636      -273.5734 
  12   1.0000     -10.021706      -272.7045 
  13   1.0000     -10.003033      -272.1964 
  14   1.0000     -10.001938      -272.1666 
  15   1.0000     -10.001667      -272.1592 
  16   1.0000      -4.332870      -117.9034 
  17   1.0000      -2.875464       -78.2454 
  18   1.0000      -2.865589       -77.9766 
  19   1.0000      -2.863598       -77.9225 
  20   1.0000      -1.166638       -31.7458 
  21   1.0000      -1.100264       -29.9397 
  22   1.0000      -1.070011       -29.1165 
  23   1.0000      -0.916907       -24.9503 
  24   1.0000      -0.884383       -24.0653 
  25   1.0000      -0.816582       -22.2203 
  26   1.0000      -0.790736       -21.5170 
  27   1.0000      -0.778419       -21.1819 
  28   1.0000      -0.774112       -21.0647 
  29   1.0000      -0.742979       -20.2175 
  30   1.0000      -0.687753       -18.7147 
  31   1.0000      -0.664813       -18.0905 
  32   1.0000      -0.658595       -17.9213 
  33   1.0000      -0.615679       -16.7535 
  34   1.0000      -0.595275       -16.1983 
  35   1.0000      -0.583718       -15.8838 
  36   1.0000      -0.546647       -14.8750 
  37   1.0000      -0.538287       -14.6475 
  38   1.0000      -0.526682       -14.3318 
  39   1.0000      -0.506707       -13.7882 
  40   1.0000      -0.496930       -13.5221 
  41   1.0000      -0.489083       -13.3086 
  42   1.0000      -0.474650       -12.9159 
  43   1.0000      -0.454944       -12.3796 
  44   1.0000      -0.442152       -12.0316 
  45   1.0000      -0.436171       -11.8688 
  46   1.0000      -0.435554       -11.8520 
  47   1.0000      -0.434071       -11.8117 
  48   1.0000      -0.431951       -11.7540 
  49   1.0000      -0.429122       -11.6770 
  50   1.0000      -0.428015       -11.6469 
  51   1.0000      -0.418198       -11.3797 
[...]
      px      :     1.005245
      py      :     1.029451
      dz2     :     0.057658  d :     0.386986
      dxz     :     0.107145
      dyz     :     0.088076
      dx2y2   :     0.064667
      dxy     :     0.069440
      f0      :     0.006284  f :     0.038125
      f+1     :     0.007318
      f-1     :     0.003528
      f+2     :     0.006009
      f-2     :     0.004671
      f+3     :     0.004281
      f-3     :     0.006033
  9 C s       :     2.818525  s :     2.818525
      pz      :     1.073363  p :     2.959360
      px      :     0.805274
      py      :     1.080723
      dz2     :     0.076941  d :     0.418051
      dxz     :     0.077183
      dyz     :     0.096461
      dx2y2   :     0.113049
      dxy     :     0.054416
      f0      :     0.008691  f :     0.045662
      f+1     :     0.007576
      f-1     :     0.003534
      f+2     :     0.007635
      f-2     :     0.003856
      f+3     :     0.007222
      f-3     :     0.007147
 10 N s       :     3.004683  s :     3.004683
      pz      :     1.224063  p :     3.689835
      px      :     1.241584
      py      :     1.224187
      dz2     :     0.013176  d :     0.152505
      dxz     :     0.046019
      dyz     :     0.023814
      dx2y2   :     0.029372
      dxy     :     0.040124
      f0      :     0.000947  f :     0.008775
      f+1     :     0.001693
      f-1     :     0.000534
      f+2     :     0.001499
      f-2     :     0.000945
      f+3     :     0.001291
      f-3     :     0.001866
 11 H s       :     0.692532  s :     0.692532
      pz      :     0.024640  p :     0.099636
      px      :     0.024599
      py      :     0.050397
 12 H s       :     0.697339  s :     0.697339
      pz      :     0.049956  p :     0.101484
      px      :     0.031904
      py      :     0.019624
 13 H s       :     0.697518  s :     0.697518
      pz      :     0.037892  p :     0.100997
      px      :     0.020639
      py      :     0.042466
 14 H s       :     0.787086  s :     0.787086
      pz      :     0.014834  p :     0.059113
      px      :     0.014898
      py      :     0.029382
 15 H s       :     0.784493  s :     0.784493
      pz      :     0.015432  p :     0.059513
      px      :     0.014144
      py      :     0.029936
 16 H s       :     0.790756  s :     0.790756
      pz      :     0.014431  p :     0.059081
      px      :     0.016910
      py      :     0.027740
 17 H s       :     0.648550  s :     0.648550
      pz      :     0.040342  p :     0.148180
      px      :     0.030728
      py      :     0.077111
 18 H s       :     0.645805  s :     0.645805
      pz      :     0.041195  p :     0.149080
      px      :     0.072980
      py      :     0.034905
 19 H s       :     0.786906  s :     0.786906
      pz      :     0.014995  p :     0.058622
      px      :     0.013921
      py      :     0.029705
 20 H s       :     0.786562  s :     0.786562
      pz      :     0.022126  p :     0.058740
      px      :     0.012814
      py      :     0.023800
 21 H s       :     0.783824  s :     0.783824
      pz      :     0.025029  p :     0.061688
      px      :     0.009748
      py      :     0.026912
 22 H s       :     0.783155  s :     0.783155
      pz      :     0.017168  p :     0.061761
      px      :     0.012227
      py      :     0.032365
 23 Cus       :     6.930500  s :     6.930500
      pz      :     4.000937  p :    12.014101
      px      :     4.012083
      py      :     4.001081
      dz2     :     2.000710  d :    10.007213
      dxz     :     2.002433
      dyz     :     2.000090
      dx2y2   :     2.001845
      dxy     :     2.002135
      f0      :     0.000000  f :     0.000001
      f+1     :     0.000000
      f-1     :     0.000000
      f+2     :     0.000000
      f-2     :     0.000000
      f+3     :     0.000000
      f-3     :     0.000000

SPIN
  0 C s       :    -0.000020  s :    -0.000020
      pz      :    -0.000014  p :    -0.000144
      px      :    -0.000081
      py      :    -0.000048
      dz2     :     0.000028  d :     0.000737
      dxz     :     0.000483
      dyz     :     0.000161
      dx2y2   :     0.000048
      dxy     :     0.000017
      f0      :     0.000005  f :     0.000089
      f+1     :     0.000010
      f-1     :    -0.000000
      f+2     :     0.000043
      f-2     :     0.000024
      f+3     :     0.000004
      f-3     :     0.000003
  1 C s       :    -0.000025  s :    -0.000025
      pz      :    -0.000552  p :    -0.000657
      px      :    -0.000061
      py      :    -0.000044
      dz2     :     0.000044  d :     0.000429
      dxz     :     0.000210
      dyz     :     0.000064
      dx2y2   :     0.000096
      dxy     :     0.000015
      f0      :     0.000004  f :     0.000069
      f+1     :     0.000006
      f-1     :     0.000001
      f+2     :     0.000024
      f-2     :     0.000015
      f+3     :     0.000003
      f-3     :     0.000016
  2 C s       :     0.000082  s :     0.000082
      pz      :     0.003725  p :     0.003948
      px      :     0.000147
      py      :     0.000077
      dz2     :     0.000044  d :     0.000408
      dxz     :     0.000335
      dyz     :     0.000018
      dx2y2   :     0.000001
      dxy     :     0.000010
      f0      :    -0.000006  f :     0.000054
      f+1     :     0.000005
      f-1     :    -0.000002
      f+2     :     0.000051
      f-2     :     0.000004
      f+3     :     0.000003
      f-3     :    -0.000001
  3 C s       :     0.000068  s :     0.000068
      pz      :     0.003081  p :     0.003184
      px      :     0.000084
      py      :     0.000020
      dz2     :     0.000048  d :     0.000272
      dxz     :     0.000091
      dyz     :     0.000044
      dx2y2   :     0.000035
      dxy     :     0.000054
      f0      :    -0.000005  f :     0.000020
      f+1     :    -0.000004
      f-1     :     0.000000
      f+2     :     0.000017
      f-2     :     0.000004
      f+3     :     0.000004
      f-3     :     0.000005
  4 C s       :     0.000141  s :     0.000141
      pz      :     0.001974  p :     0.002965
      px      :     0.000925
      py      :     0.000067
      dz2     :     0.000008  d :     0.000240
      dxz     :     0.000023
      dyz     :     0.000182
      dx2y2   :     0.000003
      dxy     :     0.000024
      f0      :    -0.000004  f :     0.000017
      f+1     :    -0.000001
      f-1     :     0.000003
      f+2     :     0.000011
      f-2     :     0.000005
      f+3     :     0.000002
      f-3     :    -0.000000
  5 C s       :     0.000033  s :     0.000033
      pz      :     0.001951  p :     0.001962
      px      :     0.000029
      py      :    -0.000017
      dz2     :     0.000009  d :     0.000510
      dxz     :    -0.000050
      dyz     :     0.000508
      dx2y2   :     0.000005
      dxy     :     0.000039
      f0      :     0.000000  f :     0.000063
      f+1     :    -0.000004
      f-1     :     0.000005
      f+2     :    -0.000001
      f-2     :     0.000060
      f+3     :     0.000003
      f-3     :    -0.000000
  6 O s       :     0.000050  s :     0.000050
      pz      :     0.003001  p :     0.003185
      px      :     0.000134
      py      :     0.000050
      dz2     :     0.000014  d :     0.000115
      dxz     :     0.000096
      dyz     :     0.000000
      dx2y2   :     0.000004
      dxy     :     0.000000
      f0      :     0.000002  f :     0.000007
      f+1     :     0.000002
      f-1     :    -0.000001
      f+2     :     0.000004
      f-2     :     0.000000
      f+3     :     0.000000
      f-3     :     0.000000
  7 O s       :     0.000036  s :     0.000036
      pz      :     0.002253  p :     0.002356
      px      :     0.000077
      py      :     0.000026
      dz2     :     0.000000  d :     0.000056
      dxz     :     0.000021
      dyz     :     0.000037
      dx2y2   :    -0.000002
      dxy     :    -0.000001
      f0      :     0.000001  f :     0.000003
      f+1     :    -0.000000
      f-1     :    -0.000000
      f+2     :     0.000001
      f-2     :     0.000002
      f+3     :    -0.000000
      f-3     :    -0.000000
  8 C s       :    -0.000016  s :    -0.000016
      pz      :    -0.000165  p :     0.000061
      px      :     0.000236
      py      :    -0.000010
      dz2     :     0.000144  d :     0.000271
      dxz     :     0.000036
      dyz     :     0.000016
      dx2y2   :     0.000077
      dxy     :    -0.000003
      f0      :     0.000073  f :     0.000128
      f+1     :     0.000001
      f-1     :     0.000004
      f+2     :     0.000044
      f-2     :     0.000002
      f+3     :     0.000002
      f-3     :     0.000001
  9 C s       :     0.000283  s :     0.000283
      pz      :     0.000129  p :     0.004935
      px      :     0.004607
      py      :     0.000200
      dz2     :    -0.000014  d :     0.000044
      dxz     :     0.000022
      dyz     :    -0.000021
      dx2y2   :     0.000062
      dxy     :    -0.000006
      f0      :     0.000002  f :     0.000038
      f+1     :     0.000016
      f-1     :     0.000006
      f+2     :    -0.000005
      f-2     :     0.000000
      f+3     :     0.000015
      f-3     :     0.000005
 10 N s       :     0.008412  s :     0.008412
      pz      :     0.000146  p :     0.018650
      px      :     0.017416
      py      :     0.001088
      dz2     :     0.000329  d :     0.001658
      dxz     :     0.000180
      dyz     :     0.000031
      dx2y2   :     0.000948
      dxy     :     0.000169
      f0      :     0.000000  f :     0.000068
      f+1     :     0.000014
      f-1     :     0.000003
      f+2     :     0.000022
      f-2     :     0.000001
      f+3     :     0.000028
      f-3     :    -0.000000
 11 H s       :     0.008721  s :     0.008721
      pz      :     0.000176  p :     0.001329
      px      :     0.000136
      py      :     0.001017
 12 H s       :     0.015630  s :     0.015630
      pz      :     0.001368  p :     0.002465
      px      :     0.001009
      py      :     0.000089
 13 H s       :     0.016331  s :     0.016331
      pz      :     0.001021  p :     0.002593
      px      :     0.000395
      py      :     0.001177
 14 H s       :     0.000004  s :     0.000004
      pz      :    -0.000002  p :    -0.000005
      px      :    -0.000003
      py      :    -0.000001
 15 H s       :     0.000012  s :     0.000012
      pz      :    -0.000013  p :    -0.000017
      px      :    -0.000002
      py      :    -0.000002
 16 H s       :    -0.000074  s :    -0.000074
      pz      :     0.000067  p :     0.000078
      px      :     0.000004
      py      :     0.000008
 17 H s       :    -0.000060  s :    -0.000060
      pz      :     0.000085  p :     0.000097
      px      :     0.000004
      py      :     0.000008
 18 H s       :    -0.000044  s :    -0.000044
      pz      :     0.000067  p :     0.000074
      px      :     0.000008
      py      :     0.000000
 19 H s       :    -0.000010  s :    -0.000010
      pz      :    -0.000003  p :    -0.000005
      px      :    -0.000002
      py      :     0.000001
 20 H s       :    -0.000008  s :    -0.000008
      pz      :     0.000000  p :    -0.000001
      px      :    -0.000002
      py      :     0.000001
 21 H s       :     0.000001  s :     0.000001
      pz      :     0.000015  p :     0.000147
      px      :     0.000114
      py      :     0.000018
 22 H s       :    -0.000147  s :    -0.000147
      pz      :     0.000005  p :     0.000150
      px      :     0.000108
      py      :     0.000037
 23 Cus       :     0.884177  s :     0.884177
      pz      :     0.000441  p :     0.009412
      px      :     0.008317
      py      :     0.000654
      dz2     :     0.001056  d :     0.004364
      dxz     :    -0.000286
      dyz     :     0.000002
      dx2y2   :     0.003392
      dxy     :     0.000200
      f0      :    -0.000000  f :    -0.000000
      f+1     :    -0.000000
      f-1     :    -0.000000
      f+2     :    -0.000000
      f-2     :    -0.000000
      f+3     :    -0.000000
      f-3     :    -0.000000


                      *****************************
                      * MAYER POPULATION ANALYSIS *
                      *****************************

  NA   - Mulliken gross atomic population
  ZA   - Total nuclear charge
  QA   - Mulliken gross atomic charge
  VA   - Mayer's total valence
  BVA  - Mayer's bonded valence
  FA   - Mayer's free valence

  ATOM       NA         ZA         QA         VA         BVA        FA
  0 C      6.1629     6.0000    -0.1629     3.9000     3.9000     0.0000
  1 C      6.3125     6.0000    -0.3125     4.0472     4.0472     0.0000
  2 C      5.8057     6.0000     0.1943     3.8486     3.8486     0.0000
  3 C      6.2537     6.0000    -0.2537     4.0880     4.0880     0.0000
  4 C      5.7308     6.0000     0.2692     3.6138     3.6138     0.0000
  5 C      5.8693     6.0000     0.1307     4.2141     4.2140     0.0000
  6 O      8.3805     8.0000    -0.3805     2.1359     2.1359     0.0000
  7 O      8.3245     8.0000    -0.3245     2.2063     2.2063     0.0000
  8 C      6.2898     6.0000    -0.2898     3.9003     3.9003     0.0000
  9 C      6.2344     6.0000    -0.2344     3.7681     3.7680     0.0001
 10 N      7.2575     7.0000    -0.2575     3.4732     3.4730     0.0002
 11 H      0.7040     1.0000     0.2960     0.9348     0.9345     0.0003
 12 H      0.7103     1.0000     0.2897     0.9519     0.9511     0.0008
 13 H      0.7183     1.0000     0.2817     0.9625     0.9615     0.0009
 14 H      0.8793     1.0000     0.1207     0.9771     0.9771     0.0000
 15 H      0.8937     1.0000     0.1063     0.9884     0.9884     0.0000
 16 H      0.8924     1.0000     0.1076     0.9722     0.9722     0.0000
 17 H      0.6711     1.0000     0.3289     0.9117     0.9117     0.0000
 18 H      0.6664     1.0000     0.3336     0.9133     0.9133     0.0000
 19 H      0.8488     1.0000     0.1512     0.9748     0.9748     0.0000
 20 H      0.8474     1.0000     0.1526     0.9710     0.9710     0.0000
 21 H      0.8119     1.0000     0.1881     0.9695     0.9695     0.0000
 22 H      0.8088     1.0000     0.1912     0.9651     0.9651     0.0000
 23 Cu    28.9263    29.0000     0.0737     1.0443     0.2197     0.8246

  Mayer bond orders larger than 0.100000
B(  0-C ,  2-C ) :   1.3490 B(  0-C ,  3-C ) :   1.4302 B(  0-C , 14-H ) :   0.9295 
B(  1-C ,  4-C ) :   1.3193 B(  1-C ,  5-C ) :   1.4868 B(  1-C , 15-H ) :   0.9646 
B(  2-C ,  5-C ) :   1.2422 B(  2-C ,  6-O ) :   1.1260 B(  3-C ,  4-C ) :   1.3533 
B(  3-C , 16-H ) :   0.9598 B(  4-C ,  8-C ) :   0.9011 B(  5-C ,  7-O ) :   1.2701 
B(  6-O , 17-H ) :   0.8703 B(  7-O , 18-H ) :   0.8536 B(  8-C ,  9-C ) :   0.9751 
B(  8-C , 19-H ) :   0.9512 B(  8-C , 20-H ) :   0.9538 B(  9-C , 10-N ) :   0.8374 
B(  9-C , 21-H ) :   0.9471 B(  9-C , 22-H ) :   0.9465 B( 10-N , 11-H ) :   0.8769 
B( 10-N , 12-H ) :   0.8675 B( 10-N , 13-H ) :   0.8691 

-------
TIMINGS
-------

Total SCF time: 0 days 0 hours 0 min 17 sec 

Total time                  ....      17.169 sec
Sum of individual times     ....      16.485 sec  ( 96.0%)

Fock matrix formation       ....      12.761 sec  ( 74.3%)
  Split-RI-J                ....       3.636 sec  ( 28.5% of F)
  XC integration            ....       8.875 sec  ( 69.5% of F)
    Basis function eval.    ....       1.519 sec  ( 17.1% of XC)
    Density eval.           ....       3.954 sec  ( 44.5% of XC)
    XC-Functional eval.     ....       0.191 sec  (  2.1% of XC)
    XC-Potential eval.      ....       2.681 sec  ( 30.2% of XC)
Diagonalization             ....       1.831 sec  ( 10.7%)
Density matrix formation    ....       0.058 sec  (  0.3%)
Population analysis         ....       0.110 sec  (  0.6%)
Initial guess               ....       0.146 sec  (  0.9%)
Orbital Transformation      ....       0.000 sec  (  0.0%)
Orbital Orthonormalization  ....       0.120 sec  (  0.7%)
DIIS solution               ....       0.737 sec  (  4.3%)
Grid generation             ....       0.841 sec  (  4.9%)

Maximum memory used throughout the entire SCF-calculation: 59.6 MB


-------------------------------------------------------------------------------
                          DFT DISPERSION CORRECTION                            
                                                                               
                              DFTD3 V3.1  Rev 1                                
                          USING Becke-Johnson damping                          
-------------------------------------------------------------------------------
The PBE functional is recognized
Active option DFTDOPT                   ...         4   

molecular C6(AA) [au] = 7475.150346 


            DFT-D V3
 parameters
 s6 scaling factor         :     1.0000 
 a1 scaling factor         :     0.4289 
 s8 scaling factor         :     0.7875 
 a2 scaling factor         :     4.4407 
 ad hoc parameters k1-k3   :    16.0000     1.3333    -4.0000 

 Edisp/kcal,au: -15.710307442904  -0.025035965856 
 E6   /kcal   : -11.079574952 
 E8   /kcal   :  -4.630732491 
 % E8         :  29.475759834 

-------------------------   ----------------
Dispersion correction           -0.025035966
-------------------------   ----------------


-------------------------   --------------------
FINAL SINGLE POINT ENERGY     -2156.886738968439
-------------------------   --------------------

                                *** OPTIMIZATION RUN DONE ***

                            ***************************************
                            *     ORCA property calculations      *
                            ***************************************

                                    ---------------------
                                    Active property flags
                                    ---------------------
   (+) Dipole Moment


------------------------------------------------------------------------------
                       ORCA ELECTRIC PROPERTIES CALCULATION
------------------------------------------------------------------------------

Dipole Moment Calculation                       ... on
Quadrupole Moment Calculation                   ... off
Polarizability Calculation                      ... off
GBWName                                         ... 5_M0005.gbw
Electron density                                ... 5_M0005.scfp
The origin for moment calculation is the CENTER OF MASS  = ( 3.901174,  0.536596  0.035185)

-------------
DIPOLE MOMENT
-------------
                                X             Y             Z
Electronic contribution:     39.75010       7.96302       0.34008
Nuclear contribution   :    -37.52229      -8.85725      -1.02211
                        -----------------------------------------
Total Dipole Moment    :      2.22780      -0.89422      -0.68203
                        -----------------------------------------
Magnitude (a.u.)       :      2.49558
Magnitude (Debye)      :      6.34325



--------------------
Rotational spectrum 
--------------------
 
Rotational constants in cm-1:     0.079453     0.004678     0.004485 
Rotational constants in MHz :  2381.931854   140.250170   134.469311 

 Dipole components along the rotational axes: 
x,y,z [a.u.] :    -2.131610     1.132069     0.634473 
x,y,z [Debye]:    -5.418122     2.877490     1.612703 

 

Timings for individual modules:

Sum of individual times         ...     1715.355 sec (=  28.589 min)
GTO integral calculation        ...       20.039 sec (=   0.334 min)   1.2 %
SCF iterations                  ...     1465.724 sec (=  24.429 min)  85.4 %
SCF Gradient evaluation         ...      228.491 sec (=   3.808 min)  13.3 %
Geometry relaxation             ...        1.101 sec (=   0.018 min)   0.1 %
                             ****ORCA TERMINATED NORMALLY****
TOTAL RUN TIME: 0 days 0 hours 28 minutes 47 seconds 866 msec
