
                                 *****************
                                 * O   R   C   A *
                                 *****************

                                            #,                                       
                                            ###                                      
                                            ####                                     
                                            #####                                    
                                            ######                                   
                                           ########,                                 
                                     ,,################,,,,,                         
                               ,,#################################,,                 
                          ,,##########################################,,             
                       ,#########################################, ''#####,          
                    ,#############################################,,   '####,        
                  ,##################################################,,,,####,       
                ,###########''''           ''''###############################       
              ,#####''   ,,,,##########,,,,          '''####'''          '####       
            ,##' ,,,,###########################,,,                        '##       
           ' ,,###''''                  '''############,,,                           
         ,,##''                                '''############,,,,        ,,,,,,###''
      ,#''                                            '''#######################'''  
     '                                                          ''''####''''         
             ,#######,   #######,   ,#######,      ##                                
            ,#'     '#,  ##    ##  ,#'     '#,    #''#        ######   ,####,        
            ##       ##  ##   ,#'  ##            #'  '#       #        #'  '#        
            ##       ##  #######   ##           ,######,      #####,   #    #        
            '#,     ,#'  ##    ##  '#,     ,#' ,#      #,         ##   #,  ,#        
             '#######'   ##     ##  '#######'  #'      '#     #####' # '####'        



                  #######################################################
                  #                        -***-                        #
                  #          Department of theory and spectroscopy      #
                  #    Directorship and core code : Frank Neese         #
                  #        Max Planck Institute fuer Kohlenforschung    #
                  #                Kaiser Wilhelm Platz 1               #
                  #                 D-45470 Muelheim/Ruhr               #
                  #                      Germany                        #
                  #                                                     #
                  #                  All rights reserved                #
                  #                        -***-                        #
                  #######################################################


                         Program Version 5.0.2 -  RELEASE  -


 With contributions from (in alphabetic order):
   Daniel Aravena         : Magnetic Suceptibility
   Michael Atanasov       : Ab Initio Ligand Field Theory (pilot matlab implementation)
   Alexander A. Auer      : GIAO ZORA, VPT2 properties, NMR spectrum
   Ute Becker             : Parallelization
   Giovanni Bistoni       : ED, misc. LED, open-shell LED, HFLD
   Martin Brehm           : Molecular dynamics
   Dmytro Bykov           : SCF Hessian
   Vijay G. Chilkuri      : MRCI spin determinant printing, contributions to CSF-ICE
   Dipayan Datta          : RHF DLPNO-CCSD density
   Achintya Kumar Dutta   : EOM-CC, STEOM-CC
   Dmitry Ganyushin       : Spin-Orbit,Spin-Spin,Magnetic field MRCI
   Miquel Garcia          : C-PCM and meta-GGA Hessian, CC/C-PCM, Gaussian charge scheme
   Yang Guo               : DLPNO-NEVPT2, F12-NEVPT2, CIM, IAO-localization
   Andreas Hansen         : Spin unrestricted coupled pair/coupled cluster methods
   Benjamin Helmich-Paris : MC-RPA, TRAH-SCF, COSX integrals
   Lee Huntington         : MR-EOM, pCC
   Robert Izsak           : Overlap fitted RIJCOSX, COSX-SCS-MP3, EOM
   Marcus Kettner         : VPT2
   Christian Kollmar      : KDIIS, OOCD, Brueckner-CCSD(T), CCSD density, CASPT2, CASPT2-K
   Simone Kossmann        : Meta GGA functionals, TD-DFT gradient, OOMP2, MP2 Hessian
   Martin Krupicka        : Initial AUTO-CI
   Lucas Lang             : DCDCAS
   Marvin Lechner         : AUTO-CI (C++ implementation), FIC-MRCC
   Dagmar Lenk            : GEPOL surface, SMD
   Dimitrios Liakos       : Extrapolation schemes; Compound Job, initial MDCI parallelization
   Dimitrios Manganas     : Further ROCIS development; embedding schemes
   Dimitrios Pantazis     : SARC Basis sets
   Anastasios Papadopoulos: AUTO-CI, single reference methods and gradients
   Taras Petrenko         : DFT Hessian,TD-DFT gradient, ASA, ECA, R-Raman, ABS, FL, XAS/XES, NRVS
   Peter Pinski           : DLPNO-MP2, DLPNO-MP2 Gradient
   Christoph Reimann      : Effective Core Potentials
   Marius Retegan         : Local ZFS, SOC
   Christoph Riplinger    : Optimizer, TS searches, QM/MM, DLPNO-CCSD(T), (RO)-DLPNO pert. Triples
   Tobias Risthaus        : Range-separated hybrids, TD-DFT gradient, RPA, STAB
   Michael Roemelt        : Original ROCIS implementation
   Masaaki Saitow         : Open-shell DLPNO-CCSD energy and density
   Barbara Sandhoefer     : DKH picture change effects
   Avijit Sen             : IP-ROCIS
   Kantharuban Sivalingam : CASSCF convergence, NEVPT2, FIC-MRCI
   Bernardo de Souza      : ESD, SOC TD-DFT
   Georgi Stoychev        : AutoAux, RI-MP2 NMR, DLPNO-MP2 response
   Willem Van den Heuvel  : Paramagnetic NMR
   Boris Wezisla          : Elementary symmetry handling
   Frank Wennmohs         : Technical directorship


 We gratefully acknowledge several colleagues who have allowed us to
 interface, adapt or use parts of their codes:
   Stefan Grimme, W. Hujo, H. Kruse, P. Pracht,  : VdW corrections, initial TS optimization,
                  C. Bannwarth, S. Ehlert          DFT functionals, gCP, sTDA/sTD-DF
   Ed Valeev, F. Pavosevic, A. Kumar             : LibInt (2-el integral package), F12 methods
   Garnet Chan, S. Sharma, J. Yang, R. Olivares  : DMRG
   Ulf Ekstrom                                   : XCFun DFT Library
   Mihaly Kallay                                 : mrcc  (arbitrary order and MRCC methods)
   Jiri Pittner, Ondrej Demel                    : Mk-CCSD
   Frank Weinhold                                : gennbo (NPA and NBO analysis)
   Christopher J. Cramer and Donald G. Truhlar   : smd solvation model
   Lars Goerigk                                  : TD-DFT with DH, B97 family of functionals
   V. Asgeirsson, H. Jonsson                     : NEB implementation
   FAccTs GmbH                                   : IRC, NEB, NEB-TS, DLPNO-Multilevel, CI-OPT
                                                   MM, QMMM, 2- and 3-layer-ONIOM, Crystal-QMMM,
                                                   LR-CPCM, SF, NACMEs, symmetry and pop. for TD-DFT,
                                                   nearIR, NL-DFT gradient (VV10), updates on ESD,
                                                   ML-optimized integration grids
   S Lehtola, MJT Oliveira, MAL Marques          : LibXC Library
   Liviu Ungur et al                             : ANISO software


 Your calculation uses the libint2 library for the computation of 2-el integrals
 For citations please refer to: http://libint.valeyev.net

 Your ORCA version has been built with support for libXC version: 5.1.0
 For citations please refer to: https://tddft.org/programs/libxc/

 This ORCA versions uses:
   CBLAS   interface :  Fast vector & matrix operations
   LAPACKE interface :  Fast linear algebra routines
   SCALAPACK package :  Parallel linear algebra routines
   Shared memory     :  Shared parallel matrices
   BLAS/LAPACK       :  OpenBLAS 0.3.15  USE64BITINT DYNAMIC_ARCH NO_AFFINITY Haswell SINGLE_THREADED
        Core in use  :  Haswell
   Copyright (c) 2011-2014, The OpenBLAS Project


Your calculation utilizes the atom-pairwise dispersion correction
with the Becke-Johnson damping scheme (D3BJ)
Cite in your paper:
S.Grimme, S.Ehrlich, L.Goerigk, J Comput Chem, (2011), 32, 1456–1465 
S.Grimme, J.Antony, S.Ehrlich and H.Krieg, J.Chem.Phys., 132, (2010), 154104 
   

================================================================================

----- Orbital basis set information -----
Your calculation utilizes the basis: def2-TZVP
   F. Weigend and R. Ahlrichs, Phys. Chem. Chem. Phys. 7, 3297 (2005).

----- AuxJ basis set information -----
Your calculation utilizes the auxiliary basis: def2/J
   F. Weigend, Phys. Chem. Chem. Phys. 8, 1057 (2006).

================================================================================
                                        WARNINGS
                       Please study these warnings very carefully!
================================================================================


WARNING: your system is open-shell and RHF/RKS was chosen
  ===> : WILL SWITCH to UHF/UKS


WARNING: The environment variable RSH_COMMAND is not set!
  ===> : All Displacements for the Numerical Hessian or Gradient calculation
         will be started on localhost

INFO   : the flag for use of the SHARK integral package has been found!

Your calculation utilizes the atom-pairwise dispersion correction
with the Becke-Johnson damping scheme (D3BJ)
Cite in your paper:
S.Grimme, S.Ehrlich, L.Goerigk, J Comput Chem, (2011), 32, 1456–1465 
S.Grimme, J.Antony, S.Ehrlich and H.Krieg, J.Chem.Phys., 132, (2010), 154104 
   

================================================================================

----- Orbital basis set information -----
Your calculation utilizes the basis: def2-TZVP
   F. Weigend and R. Ahlrichs, Phys. Chem. Chem. Phys. 7, 3297 (2005).

----- AuxJ basis set information -----
Your calculation utilizes the auxiliary basis: def2/J
   F. Weigend, Phys. Chem. Chem. Phys. 8, 1057 (2006).

================================================================================
                                        WARNINGS
                       Please study these warnings very carefully!
================================================================================


WARNING: MOInp is set but Guess=PModel. MOInp will be ignored!
         To read the initial guess from a file you must also specify
         'MORead' in the simple input or 'Guess MORead' in the %scf block


WARNING: The environment variable RSH_COMMAND is not set!
  ===> : All Displacements for the Numerical Hessian or Gradient calculation
         will be started on localhost

INFO   : the flag for use of the SHARK integral package has been found!

Your calculation utilizes the atom-pairwise dispersion correction
with the Becke-Johnson damping scheme (D3BJ)
Cite in your paper:
S.Grimme, S.Ehrlich, L.Goerigk, J Comput Chem, (2011), 32, 1456–1465 
S.Grimme, J.Antony, S.Ehrlich and H.Krieg, J.Chem.Phys., 132, (2010), 154104 
   

================================================================================

----- Orbital basis set information -----
Your calculation utilizes the basis: def2-TZVP
   F. Weigend and R. Ahlrichs, Phys. Chem. Chem. Phys. 7, 3297 (2005).

----- AuxJ basis set information -----
Your calculation utilizes the auxiliary basis: def2/J
   F. Weigend, Phys. Chem. Chem. Phys. 8, 1057 (2006).

================================================================================
                                        WARNINGS
                       Please study these warnings very carefully!
================================================================================


WARNING: MOInp is set but Guess=PModel. MOInp will be ignored!
         To read the initial guess from a file you must also specify
         'MORead' in the simple input or 'Guess MORead' in the %scf block


WARNING: The environment variable RSH_COMMAND is not set!
  ===> : All Displacements for the Numerical Hessian or Gradient calculation
         will be started on localhost

INFO   : the flag for use of the SHARK integral package has been found!

Your calculation utilizes the atom-pairwise dispersion correction
with the Becke-Johnson damping scheme (D3BJ)
Cite in your paper:
S.Grimme, S.Ehrlich, L.Goerigk, J Comput Chem, (2011), 32, 1456–1465 
S.Grimme, J.Antony, S.Ehrlich and H.Krieg, J.Chem.Phys., 132, (2010), 154104 
   

================================================================================

----- Orbital basis set information -----
Your calculation utilizes the basis: def2-TZVP
   F. Weigend and R. Ahlrichs, Phys. Chem. Chem. Phys. 7, 3297 (2005).

----- AuxJ basis set information -----
Your calculation utilizes the auxiliary basis: def2/J
   F. Weigend, Phys. Chem. Chem. Phys. 8, 1057 (2006).

================================================================================
                                        WARNINGS
                       Please study these warnings very carefully!
================================================================================


WARNING: MOInp is set but Guess=PModel. MOInp will be ignored!
         To read the initial guess from a file you must also specify
         'MORead' in the simple input or 'Guess MORead' in the %scf block


WARNING: The environment variable RSH_COMMAND is not set!
  ===> : All Displacements for the Numerical Hessian or Gradient calculation
         will be started on localhost

INFO   : the flag for use of the SHARK integral package has been found!

Your calculation utilizes the atom-pairwise dispersion correction
with the Becke-Johnson damping scheme (D3BJ)
Cite in your paper:
S.Grimme, S.Ehrlich, L.Goerigk, J Comput Chem, (2011), 32, 1456–1465 
S.Grimme, J.Antony, S.Ehrlich and H.Krieg, J.Chem.Phys., 132, (2010), 154104 
   

================================================================================

----- Orbital basis set information -----
Your calculation utilizes the basis: def2-TZVP
   F. Weigend and R. Ahlrichs, Phys. Chem. Chem. Phys. 7, 3297 (2005).

----- AuxJ basis set information -----
Your calculation utilizes the auxiliary basis: def2/J
   F. Weigend, Phys. Chem. Chem. Phys. 8, 1057 (2006).

================================================================================
                                        WARNINGS
                       Please study these warnings very carefully!
================================================================================


WARNING: MOInp is set but Guess=PModel. MOInp will be ignored!
         To read the initial guess from a file you must also specify
         'MORead' in the simple input or 'Guess MORead' in the %scf block


WARNING: The environment variable RSH_COMMAND is not set!
  ===> : All Displacements for the Numerical Hessian or Gradient calculation
         will be started on localhost

INFO   : the flag for use of the SHARK integral package has been found!

================================================================================
                                       INPUT FILE
================================================================================
NAME = ex.inp
|  1> # preopt in PBE-D3
|  2> 
|  3> ! B3LYP D3 TightSCF def2-TZVP slowconv PModel cpcm(water) opt numfreq
|  4> %pal nprocs=16 end
|  5> %geom maxiter=150 end
|  6> %elprop Polar 1 end
|  7> %base "neutral"
|  8> *xyz 2 2
|  9>   C   -0.09625132784858     -0.83014044113634     -0.32058670956934
| 10>   C   -1.14917678578247      1.77380209762231     -0.10040610052142
| 11>   C   -1.40726909443459     -0.63697454609702      0.07501724068257
| 12>   C   0.71441660698379      0.27624551956974     -0.61691418915943
| 13>   C   0.16192370510394      1.57775567741507     -0.49211659748429
| 14>   C   -1.95998372292605      0.66777040058595      0.20507529693621
| 15>   O   -3.21641194565174      0.88021901923172      0.62034754502382
| 16>   O   -2.26330205144206     -1.69066056250320      0.37527946844450
| 17>   C   2.12710738233498      0.09998746688251     -1.00880958356815
| 18>   C   3.13043575469044      0.12866027626271      0.24811163170759
| 19>   N   3.04920087235915     -0.99884553325748      1.09606243617321
| 20>   H   0.29208255206064     -1.84666077525368     -0.41667546030671
| 21>   H   -1.57560907068954      2.77281139994372     -0.00629271023981
| 22>   H   0.79188368069171      2.44056886317851     -0.71541930516175
| 23>   H   -3.65895771389159      0.03562100245161      0.85057826901209
| 24>   H   -1.74875276712752     -2.47747340222523      0.65995981005602
| 25>   H   2.46311472157054      0.93042209051749     -1.64603970326234
| 26>   H   2.29742900822527     -0.85266328290480     -1.52665576591883
| 27>   H   4.13147958756760      0.18174190481853     -0.20360851869634
| 28>   H   2.93449998023194      1.04572200482614      0.81727020313446
| 29>   H   3.31907733172525     -1.90078053575860      0.70766377439073
| 30>   H   2.27798768838803     -1.04832767297380      1.75869682739928
| 31>   Cu  -3.60576987613917     -2.30406631919585     -0.96681096907207
| 32> *
| 33> 
| 34> 
| 35> $new_job
| 36> 
| 37> ! B3LYP D3 TightSCF def2-TZVP slowconv PModel cpcm(water) opt numfreq
| 38> %pal nprocs=16 end
| 39> %geom maxiter=150 end
| 40> %elprop Polar 1 end
| 41> %base "protonated"
| 42> *xyz 3 2
| 43>   C   1.73208716760524      1.52163363804737      0.09400973992142
| 44>   C   0.12269499200650     -0.82479950744431      0.01987288424070
| 45>   C   2.33639508362140      0.29697282445491      0.24975126598006
| 46>   C   0.33459659144966      1.57696447231623     -0.09487409588101
| 47>   C   -0.49138594327014      0.39986605277504     -0.13627008083436
| 48>   C   1.53150451446463     -0.90779117185879      0.24072305869684
| 49>   O   3.72104252869975      0.13908753045604      0.46378757070754
| 50>   O   2.01915772372487     -2.10379651260847      0.45939167759571
| 51>   C   -1.97656158864718      0.61078692557388     -0.33872145929303
| 52>   C   -2.84669940206333     -0.64734035589458     -0.32825017799819
| 53>   N   -4.31380373232302     -0.30676081195722     -0.51735376940365
| 54>   H   -4.49810224973394      0.16530432408188     -1.41893419544991
| 55>   H   -4.89128643548083     -1.16589430595938     -0.50680319545201
| 56>   H   -4.67770343639510      0.30577357754062      0.23243086334703
| 57>   H   2.30960001260237      2.44920004963617      0.11620229884757
| 58>   H   -0.41175403822471     -1.77650568290962      0.01388088575970
| 59>   H   -0.12665020753816      2.56047191410180     -0.21912243351271
| 60>   H   3.98701922369121      0.62914435528248      1.27591365242638
| 61>   H   2.97697241761329     -2.11669029537517      0.68787636478124
| 62>   H   -2.10124567219892      1.15581844011477     -1.29343235582567
| 63>   H   -2.31359066752325      1.31462753838409      0.44508573299230
| 64>   H   -2.58892060084130     -1.33784431134977     -1.14292926681201
| 65>   H   -2.78194576019267     -1.18640525161908      0.62699702115356
| 66>   Cu  5.28716540795366      0.19260894121113     -0.89908495398752
| 67> *
| 68> 
| 69> 
| 70> $new_job
| 71> 
| 72> ! B3LYP D3 TightSCF def2-TZVP slowconv PModel cpcm(water) opt numfreq
| 73> %pal nprocs=16 end
| 74> %geom maxiter=150 end
| 75> %elprop Polar 1 end
| 76> %base "deprotonated"
| 77> *xyz 1 2
| 78>   O   2.26084164507082     -2.09499237526522     -0.12351261060848
| 79>   O   3.27386854970865      0.29715698877875      0.44665616671966
| 80>   N   -3.02740748338264      0.52479273278855      1.23273161164724
| 81>   C   -2.14687041584005     -0.16364650145423     -0.99170149515556
| 82>   C   -0.69737902796406     -0.02676563842593     -0.63825948473826
| 83>   C   -3.01805255613176     -0.54182735240212      0.22650159243340
| 84>   C   0.12269389407859     -1.15642220062577     -0.56417119074986
| 85>   C   -0.15240391080706      1.25674121081090     -0.33120094336480
| 86>   C   1.45761632113997     -1.02493307227655     -0.19539634202655
| 87>   C   1.16521005383529      1.41126026877946      0.03688309729763
| 88>   C   2.01771993259306      0.27883190843810      0.11686637758466
| 89>   H   -2.27046352860052     -0.95363932536336     -1.74777617017862
| 90>   H   -2.52174709448240      0.78216097935800     -1.40992035348513
| 91>   H   -2.66214312595285     -1.51560440645898      0.61420099665110
| 92>   H   -4.04942526279055     -0.68684429192360     -0.12729505951784
| 93>   H   -0.27063620219543     -2.14761968442168     -0.79767549418140
| 94>   H   -0.80623609652440      2.12814965537032     -0.39237555639691
| 95>   H   1.58599173621695      2.39235516220607      0.27107223114466
| 96>   H   -2.11727820978539      0.57006791860815      1.69990506993360
| 97>   H   -3.70470684710996      0.29367837794818      1.96333244464691
| 98>   H   3.15125473374909     -1.76842873442043      0.14836729596643
| 99>   Cu  4.28872476217466      1.77763339795136      0.92934939537811
|100> *
|101> 
|102> $new_job
|103> 
|104> ! B3LYP D3 TightSCF def2-TZVP slowconv PModel cpcm(water) opt numfreq
|105> %pal nprocs=16 end
|106> %geom maxiter=150 end
|107> %elprop Polar 1 end
|108> %base "2x_deprotonated"
|109> *xyz 0 2
|110>   O   2.43586882996748     -1.90023421851759     -0.01777148959863
|111>   O   3.43804502215138      0.60425778472090      0.52730566387379
|112>   N   -4.31855210478787     -0.12203736968418      0.43629000220145
|113>   C   -2.04261783260381     -0.03217420918978     -0.69635778568917
|114>   C   -0.56961664668622      0.11369149596034     -0.44052433828931
|115>   C   -2.86947893788980      0.00191705158457      0.61225554920640
|116>   C   0.25040836093671     -1.00001173084815     -0.30857526300864
|117>   C   -0.00651529176187      1.41435782607464     -0.27852422011331
|118>   C   1.63763311007587     -0.87403724975237     -0.04743867291060
|119>   C   1.33434066833833      1.59440115762532      0.00389502522517
|120>   C   2.19437431387157      0.47656912028070      0.17346684689896
|121>   H   -2.39708518617520      0.78440774420579     -1.34681070405581
|122>   H   -2.24707070091452     -0.98408315670070     -1.21131132410423
|123>   H   -2.66310959321948      0.94453096832017      1.14374492090914
|124>   H   -2.52612685112091     -0.81474596642492      1.26735939139948
|125>   H   -0.15702830111019     -2.00516293943112     -0.44646832450790
|126>   H   -0.65960599294308      2.28423579571361     -0.38377341041693
|127>   H   1.75566858006615      2.59424524131224      0.12909145049747
|128>   H   -4.52556109051840     -0.98855796426193     -0.06910904321185
|129>   H   -4.65249401955347      0.63411204435591     -0.16845207029437
|130>   Cu  4.24854924787735     -1.22651091234346      0.48276729298892
|131> *
|132> 
|133> $new_job
|134> 
|135> ! B3LYP D3 TightSCF def2-TZVP slowconv PModel cpcm(water) opt numfreq
|136> %pal nprocs=16 end
|137> %geom maxiter=150 end
|138> %elprop Polar 1 end
|139> %base "zwitterione"
|140> *xyz 2 2
|141>   O   3.30366993058166     -1.96116423120905     -0.07903755898060
|142>   C   2.45537634520808     -0.91232967153148     -0.11655050258584
|143>   C   1.09516653815941     -1.01444701749633     -0.38020341419974
|144>   C   0.29961464111158      0.13577387365669     -0.39723741292432
|145>   C   -1.17726731017997      0.03032086917832     -0.65483894509809
|146>   C   -1.95791872113163      0.00358119087738      0.66016646747512
|147>   N   -3.42985148355613     -0.11151314205860      0.39208122611513
|148>   H   -3.96924686462271     -0.11582003201216      1.26869303358015
|149>   H   -3.77218688878039      0.67541983676992     -0.17736525518638
|150>   H   -3.65644390755740     -0.98033076117034     -0.11364087046523
|151>   C   0.88806549018807      1.40525168763659     -0.14386730642484
|152>   C   2.23366747195883      1.52652203158535      0.11782043121139
|153>   C   3.07215081131400      0.37409385429533      0.14299839711272
|154>   O   4.33980308631136      0.47128061412231      0.38751948584957
|155>   H   2.84653474375635     -2.80976340895502     -0.25266075276072
|156>   H   0.65393623989510     -1.99483040148719     -0.57615336768136
|157>   H   -1.51160869437814      0.89422322200072     -1.25145515478867
|158>   H   -1.39414110179680     -0.88568446557019     -1.22430496214171
|159>   H   -1.67808637838891     -0.85763260387537      1.27860390765398
|160>   H   -1.81038461488373      0.92396417397687      1.23781534267957
|161>   H   0.25390590642505      2.29354521124659     -0.16568337540406
|162>   H   2.69623327673630      2.49571186235556      0.30809756593263
|163>   Cu  5.45154907463003     -1.05594399333591      0.40883942403131
|164> *
|165> 
|166>                          ****END OF INPUT****
================================================================================


                 $$$$$$$$$$$$$$$$$$$$$$$$$$$$$$$$$$$$$$$$$$$$$$ 
                 $ THERE ARE  5 JOBS TO BE PROCESSED THIS RUN $
                 $$$$$$$$$$$$$$$$$$$$$$$$$$$$$$$$$$$$$$$$$$$$$$ 




                 $$$$$$$$$$$$$$$$  JOB NUMBER  1 $$$$$$$$$$$$$$


                       *****************************
                       * Geometry Optimization Run *
                       *****************************

Geometry optimization settings:
Update method            Update   .... BFGS
Choice of coordinates    CoordSys .... Z-matrix Internals
Initial Hessian          InHess   .... Almoef's Model

Convergence Tolerances:
Energy Change            TolE     ....  5.0000e-06 Eh
Max. Gradient            TolMAXG  ....  3.0000e-04 Eh/bohr
RMS Gradient             TolRMSG  ....  1.0000e-04 Eh/bohr
Max. Displacement        TolMAXD  ....  4.0000e-03 bohr
RMS Displacement         TolRMSD  ....  2.0000e-03 bohr
Strict Convergence                ....  False
------------------------------------------------------------------------------
                        ORCA OPTIMIZATION COORDINATE SETUP
------------------------------------------------------------------------------

The optimization will be done in new redundant internal coordinates
Making redundant internal coordinates   ...  (new redundants) done
Evaluating the initial hessian          ...  (Almloef) done
Evaluating the coordinates              ...  done
Calculating the B-matrix                .... done
Calculating the G-matrix                .... done
Diagonalizing the G-matrix              .... done
Small eigenvalue found = 1.463e-02
Small eigenvalue found = 2.842e-02
The first mode is                       ....   48
The number of degrees of freedom        ....   63

    -----------------------------------------------------------------
                    Redundant Internal Coordinates


    -----------------------------------------------------------------
         Definition                    Initial Value    Approx d2E/dq
    -----------------------------------------------------------------
      1. B(C   2,C   0)                  1.3830         0.641162   
      2. B(C   3,C   0)                  1.4032         0.595134   
      3. B(C   4,C   3)                  1.4194         0.560792   
      4. B(C   4,C   1)                  1.3823         0.642635   
      5. B(C   5,C   2)                  1.4229         0.553579   
      6. B(C   5,C   1)                  1.4050         0.591293   
      7. B(O   6,C   5)                  1.3402         0.671880   
      8. B(O   7,C   2)                  1.3904         0.558781   
      9. B(C   8,C   3)                  1.4766         0.454544   
     10. B(C   9,C   8)                  1.6085         0.279964   
     11. B(N  10,C   9)                  1.4131         0.514043   
     12. B(H  11,C   0)                  1.0924         0.356932   
     13. B(H  12,C   1)                  1.0903         0.359723   
     14. B(H  13,C   4)                  1.0914         0.358249   
     15. B(H  14,O   6)                  0.9809         0.481498   
     16. B(H  15,O   7)                  0.9823         0.479090   
     17. B(H  16,C   8)                  1.0994         0.347933   
     18. B(H  17,C   8)                  1.0976         0.350190   
     19. B(H  18,C   9)                  1.0995         0.347716   
     20. B(H  19,C   9)                  1.0970         0.351002   
     21. B(H  20,N  10)                  1.0184         0.419533   
     22. B(H  21,N  10)                  1.0180         0.420192   
     23. B(Cu 22,O   7)                  1.9949         0.613612   
     24. A(C   3,C   0,H  11)          120.6463         0.349953   
     25. A(C   2,C   0,H  11)          119.4805         0.354390   
     26. A(C   2,C   0,C   3)          119.8637         0.433491   
     27. A(C   5,C   1,H  12)          118.4785         0.350030   
     28. A(C   4,C   1,H  12)          121.6934         0.354996   
     29. A(C   4,C   1,C   5)          119.8224         0.433165   
     30. A(C   5,C   2,O   7)          115.8487         0.414804   
     31. A(C   0,C   2,C   5)          121.4962         0.427893   
     32. A(C   0,C   2,O   7)          122.6545         0.425817   
     33. A(C   4,C   3,C   8)          120.3432         0.403429   
     34. A(C   0,C   3,C   8)          120.9733         0.407687   
     35. A(C   0,C   3,C   4)          118.6541         0.423205   
     36. A(C   1,C   4,C   3)          121.6101         0.429064   
     37. A(C   3,C   4,H  13)          118.8309         0.346680   
     38. A(C   1,C   4,H  13)          119.5588         0.354749   
     39. A(C   1,C   5,O   6)          118.9200         0.433789   
     40. A(C   1,C   5,C   2)          118.5411         0.421739   
     41. A(C   2,C   5,O   6)          122.5351         0.428683   
     42. A(C   5,O   6,H  14)          111.0502         0.370340   
     43. A(C   2,O   7,H  15)          110.3103         0.358538   
     44. A(H  15,O   7,Cu 22)          107.5289         0.407731   
     45. A(C   2,O   7,Cu 22)          120.1358         0.471906   
     46. A(C   9,C   8,H  17)          106.6994         0.308058   
     47. A(C   3,C   8,C   9)          112.7831         0.357681   
     48. A(C   3,C   8,H  17)          112.1655         0.333454   
     49. A(H  16,C   8,H  17)          109.5559         0.288014   
     50. A(C   9,C   8,H  16)          104.4081         0.307738   
     51. A(C   3,C   8,H  16)          110.8598         0.333096   
     52. A(N  10,C   9,H  19)          110.2078         0.338418   
     53. A(C   8,C   9,H  19)          107.9944         0.308173   
     54. A(N  10,C   9,H  18)          109.7173         0.337888   
     55. A(C   8,C   9,H  18)          104.3427         0.307707   
     56. A(C   8,C   9,N  10)          114.7597         0.362993   
     57. A(H  18,C   9,H  19)          109.5979         0.288091   
     58. A(H  20,N  10,H  21)          113.9510         0.300354   
     59. A(C   9,N  10,H  21)          118.2245         0.345758   
     60. A(C   9,N  10,H  20)          117.5516         0.345666   
     61. D(O   7,C   2,C   0,C   3)    179.6348         0.028569   
     62. D(O   7,C   2,C   0,H  11)      0.7494         0.028569   
     63. D(C   5,C   2,C   0,C   3)     -0.6707         0.028569   
     64. D(C   5,C   2,C   0,H  11)   -179.5562         0.028569   
     65. D(C   8,C   3,C   0,H  11)     -2.6723         0.024396   
     66. D(C   8,C   3,C   0,C   2)    178.4555         0.024396   
     67. D(C   4,C   3,C   0,C   2)      0.4193         0.024396   
     68. D(C   4,C   3,C   0,H  11)    179.2915         0.024396   
     69. D(H  13,C   4,C   1,C   5)   -179.1803         0.028709   
     70. D(H  13,C   4,C   1,H  12)     -0.0594         0.028709   
     71. D(C   1,C   4,C   3,C   0)     -0.6040         0.021544   
     72. D(C   1,C   4,C   3,C   8)   -178.6530         0.021544   
     73. D(H  13,C   4,C   3,C   0)    179.5953         0.021544   
     74. D(C   3,C   4,C   1,H  12)   -179.8587         0.028709   
     75. D(C   3,C   4,C   1,C   5)      1.0203         0.028709   
     76. D(H  13,C   4,C   3,C   8)      1.5462         0.021544   
     77. D(O   6,C   5,C   2,O   7)      1.5058         0.020973   
     78. D(O   6,C   5,C   2,C   0)   -178.2083         0.020973   
     79. D(C   1,C   5,C   2,O   7)   -179.2198         0.020973   
     80. D(O   6,C   5,C   1,H  12)     -1.0693         0.024066   
     81. D(C   1,C   5,C   2,C   0)      1.0661         0.020973   
     82. D(O   6,C   5,C   1,C   4)    178.0798         0.024066   
     83. D(C   2,C   5,C   1,H  12)    179.6296         0.024066   
     84. D(C   2,C   5,C   1,C   4)     -1.2213         0.024066   
     85. D(H  14,O   6,C   5,C   2)      2.6086         0.033551   
     86. D(H  14,O   6,C   5,C   1)   -176.6631         0.033551   
     87. D(Cu 22,O   7,C   2,C   5)     79.8730         0.024930   
     88. D(Cu 22,O   7,C   2,C   0)   -100.4166         0.024930   
     89. D(H  15,O   7,C   2,C   5)   -154.2390         0.024930   
     90. D(H  15,O   7,C   2,C   0)     25.4715         0.024930   
     91. D(C   9,C   8,C   3,C   0)    -90.7322         0.015234   
     92. D(H  17,C   8,C   3,C   4)   -152.2218         0.015234   
     93. D(H  17,C   8,C   3,C   0)     29.7750         0.015234   
     94. D(H  16,C   8,C   3,C   4)    -29.3999         0.015234   
     95. D(H  16,C   8,C   3,C   0)    152.5969         0.015234   
     96. D(C   9,C   8,C   3,C   4)     87.2710         0.015234   
     97. D(H  19,C   9,C   8,H  17)   -176.5654         0.006672   
     98. D(H  19,C   9,C   8,H  16)     67.4655         0.006672   
     99. D(H  19,C   9,C   8,C   3)    -52.9763         0.006672   
    100. D(H  18,C   9,C   8,H  17)     66.8791         0.006672   
    101. D(H  18,C   9,C   8,H  16)    -49.0900         0.006672   
    102. D(H  18,C   9,C   8,C   3)   -169.5318         0.006672   
    103. D(N  10,C   9,C   8,H  17)    -53.2146         0.006672   
    104. D(N  10,C   9,C   8,H  16)   -169.1837         0.006672   
    105. D(N  10,C   9,C   8,C   3)     70.3746         0.006672   
    106. D(H  21,N  10,C   9,H  19)     43.9026         0.022715   
    107. D(H  21,N  10,C   9,H  18)    164.6729         0.022715   
    108. D(H  21,N  10,C   9,C   8)    -78.2567         0.022715   
    109. D(H  20,N  10,C   9,H  19)   -172.9962         0.022715   
    110. D(H  20,N  10,C   9,H  18)    -52.2259         0.022715   
    111. D(H  20,N  10,C   9,C   8)     64.8444         0.022715   
    -----------------------------------------------------------------

Number of atoms                         .... 23
Number of degrees of freedom            .... 111

         *************************************************************
         *                GEOMETRY OPTIMIZATION CYCLE   1            *
         *************************************************************
---------------------------------
CARTESIAN COORDINATES (ANGSTROEM)
---------------------------------
  C     -0.096251   -0.830140   -0.320587
  C     -1.149177    1.773802   -0.100406
  C     -1.407269   -0.636975    0.075017
  C      0.714417    0.276246   -0.616914
  C      0.161924    1.577756   -0.492117
  C     -1.959984    0.667770    0.205075
  O     -3.216412    0.880219    0.620348
  O     -2.263302   -1.690661    0.375279
  C      2.127107    0.099987   -1.008810
  C      3.130436    0.128660    0.248112
  N      3.049201   -0.998846    1.096062
  H      0.292083   -1.846661   -0.416675
  H     -1.575609    2.772811   -0.006293
  H      0.791884    2.440569   -0.715419
  H     -3.658958    0.035621    0.850578
  H     -1.748753   -2.477473    0.659960
  H      2.463115    0.930422   -1.646040
  H      2.297429   -0.852663   -1.526656
  H      4.131480    0.181742   -0.203609
  H      2.934500    1.045722    0.817270
  H      3.319077   -1.900781    0.707664
  H      2.277988   -1.048328    1.758697
  Cu    -3.605770   -2.304066   -0.966811

----------------------------
CARTESIAN COORDINATES (A.U.)
----------------------------
  NO LB      ZA    FRAG     MASS         X           Y           Z
   0 C     6.0000    0    12.011   -0.181889   -1.568738   -0.605821
   1 C     6.0000    0    12.011   -2.171629    3.352000   -0.189740
   2 C     6.0000    0    12.011   -2.659353   -1.203707    0.141762
   3 C     6.0000    0    12.011    1.350052    0.522028   -1.165799
   4 C     6.0000    0    12.011    0.305991    2.981526   -0.929966
   5 C     6.0000    0    12.011   -3.703832    1.261903    0.387536
   6 O     8.0000    0    15.999   -6.078138    1.663373    1.172287
   7 O     8.0000    0    15.999   -4.277021   -3.194885    0.709175
   8 C     6.0000    0    12.011    4.019650    0.188949   -1.906374
   9 C     6.0000    0    12.011    5.915666    0.243133    0.468863
  10 N     7.0000    0    14.007    5.762155   -1.887545    2.071258
  11 H     1.0000    0     1.008    0.551956   -3.489683   -0.787403
  12 H     1.0000    0     1.008   -2.977470    5.239854   -0.011891
  13 H     1.0000    0     1.008    1.496443    4.612007   -1.351947
  14 H     1.0000    0     1.008   -6.914428    0.067314    1.607360
  15 H     1.0000    0     1.008   -3.304664   -4.681746    1.247143
  16 H     1.0000    0     1.008    4.654612    1.758243   -3.110564
  17 H     1.0000    0     1.008    4.341512   -1.611300   -2.884961
  18 H     1.0000    0     1.008    7.807365    0.343442   -0.384764
  19 H     1.0000    0     1.008    5.545401    1.976128    1.544417
  20 H     1.0000    0     1.008    6.272147   -3.591955    1.337291
  21 H     1.0000    0     1.008    4.304773   -1.981052    3.323455
  22 Cu   29.0000    0    63.550   -6.813918   -4.354054   -1.827008

--------------------------------
INTERNAL COORDINATES (ANGSTROEM)
--------------------------------
 C      0   0   0     0.000000000000     0.00000000     0.00000000
 C      1   0   0     2.817383230184     0.00000000     0.00000000
 C      1   2   0     1.382961724982    59.62002973     0.00000000
 C      1   2   3     1.403239954453    60.24378083   179.87074870
 C      2   1   3     1.382337082448    59.48998731   179.82519893
 C      2   1   3     1.405002807243    60.33626113     0.53800358
 O      6   2   1     1.340222867458   118.91998206   178.78762431
 O      3   1   2     1.390397083596   122.65445507   179.76420474
 C      4   1   2     1.476598837890   120.97331129   178.32696572
 C      9   4   1     1.608521337807   112.78307655   269.26776674
 N     10   9   4     1.413113237997   114.75972090    70.37458349
 H      1   2   3     1.092405529086   178.75980491    43.75347402
 H      2   1   3     1.090285013181   178.80817271     6.59460296
 H      5   2   1     1.091402887859   119.55877239   180.10572933
 H      7   6   2     0.980917301919   111.05015120   183.33688803
 H      8   3   1     0.982282193486   110.31027308    25.47151942
 H      9   4   1     1.099356548895   110.85978184   152.59687243
 H      9   4   1     1.097596271810   112.16547110    29.77499644
 H     10   9   4     1.099526038306   104.34265780   190.46820578
 H     10   9   4     1.096966052864   107.99439663   307.02370893
 H     11  10   9     1.018417189825   117.55164051    64.84442189
 H     11  10   9     1.017989486054   118.22448135   281.74330060
 Cu     8   3   1     1.994916846679   120.13584602   259.58344045

---------------------------
INTERNAL COORDINATES (A.U.)
---------------------------
 C      0   0   0     0.000000000000     0.00000000     0.00000000
 C      1   0   0     5.324082719350     0.00000000     0.00000000
 C      1   2   0     2.613418913911    59.62002973     0.00000000
 C      1   2   3     2.651739214092    60.24378083   179.87074870
 C      2   1   3     2.612238510590    59.48998731   179.82519893
 C      2   1   3     2.655070523081    60.33626113     0.53800358
 O      6   2   1     2.532654177915   118.91998206   178.78762431
 O      3   1   2     2.627469705400   122.65445507   179.76420474
 C      4   1   2     2.790367413279   120.97331129   178.32696572
 C      9   4   1     3.039664809024   112.78307655   269.26776674
 N     10   9   4     2.670397016033   114.75972090    70.37458349
 H      1   2   3     2.064347277154   178.75980491    43.75347402
 H      2   1   3     2.060340082830   178.80817271     6.59460296
 H      5   2   1     2.062452559823   119.55877239   180.10572933
 H      7   6   2     1.853665060652   111.05015120   183.33688803
 H      8   3   1     1.856244331916   110.31027308    25.47151942
 H      9   4   1     2.077482800944   110.85978184   152.59687243
 H      9   4   1     2.074156359334   112.16547110    29.77499644
 H     10   9   4     2.077803089513   104.34265780   190.46820578
 H     10   9   4     2.072965418122   107.99439663   307.02370893
 H     11  10   9     1.924529578847   117.55164051    64.84442189
 H     11  10   9     1.923721335854   118.22448135   281.74330060
 Cu     8   3   1     3.769846500169   120.13584602   259.58344045

---------------------
BASIS SET INFORMATION
---------------------
There are 5 groups of distinct atoms

 Group   1 Type C   : 11s6p2d1f contracted to 5s3p2d1f pattern {62111/411/11/1}
 Group   2 Type O   : 11s6p2d1f contracted to 5s3p2d1f pattern {62111/411/11/1}
 Group   3 Type N   : 11s6p2d1f contracted to 5s3p2d1f pattern {62111/411/11/1}
 Group   4 Type H   : 5s1p contracted to 3s1p pattern {311/1}
 Group   5 Type Cu  : 17s11p7d1f contracted to 6s4p4d1f pattern {842111/6311/4111/1}

Atom   0C    basis set group =>   1
Atom   1C    basis set group =>   1
Atom   2C    basis set group =>   1
Atom   3C    basis set group =>   1
Atom   4C    basis set group =>   1
Atom   5C    basis set group =>   1
Atom   6O    basis set group =>   2
Atom   7O    basis set group =>   2
Atom   8C    basis set group =>   1
Atom   9C    basis set group =>   1
Atom  10N    basis set group =>   3
Atom  11H    basis set group =>   4
Atom  12H    basis set group =>   4
Atom  13H    basis set group =>   4
Atom  14H    basis set group =>   4
Atom  15H    basis set group =>   4
Atom  16H    basis set group =>   4
Atom  17H    basis set group =>   4
Atom  18H    basis set group =>   4
Atom  19H    basis set group =>   4
Atom  20H    basis set group =>   4
Atom  21H    basis set group =>   4
Atom  22Cu   basis set group =>   5
---------------------------------
AUXILIARY/J BASIS SET INFORMATION
---------------------------------
There are 5 groups of distinct atoms

 Group   1 Type C   : 12s5p4d2f1g contracted to 6s4p3d1f1g pattern {711111/2111/211/2/1}
 Group   2 Type O   : 12s5p4d2f1g contracted to 6s4p3d1f1g pattern {711111/2111/211/2/1}
 Group   3 Type N   : 12s5p4d2f1g contracted to 6s4p3d1f1g pattern {711111/2111/211/2/1}
 Group   4 Type H   : 5s2p1d contracted to 3s1p1d pattern {311/2/1}
 Group   5 Type Cu  : 19s5p5d3f3g contracted to 8s5p4d3f3g pattern {121111111/11111/2111/111/111}

Atom   0C    basis set group =>   1
Atom   1C    basis set group =>   1
Atom   2C    basis set group =>   1
Atom   3C    basis set group =>   1
Atom   4C    basis set group =>   1
Atom   5C    basis set group =>   1
Atom   6O    basis set group =>   2
Atom   7O    basis set group =>   2
Atom   8C    basis set group =>   1
Atom   9C    basis set group =>   1
Atom  10N    basis set group =>   3
Atom  11H    basis set group =>   4
Atom  12H    basis set group =>   4
Atom  13H    basis set group =>   4
Atom  14H    basis set group =>   4
Atom  15H    basis set group =>   4
Atom  16H    basis set group =>   4
Atom  17H    basis set group =>   4
Atom  18H    basis set group =>   4
Atom  19H    basis set group =>   4
Atom  20H    basis set group =>   4
Atom  21H    basis set group =>   4
Atom  22Cu   basis set group =>   5


           ************************************************************
           *        Program running with 16 parallel MPI-processes    *
           *              working on a common directory               *
           ************************************************************
------------------------------------------------------------------------------
                           ORCA GTO INTEGRAL CALCULATION
                           -- RI-GTO INTEGRALS CHOSEN --
------------------------------------------------------------------------------
------------------------------------------------------------------------------
                   ___                                                        
                  /   \      - P O W E R E D   B Y -                         
                 /     \                                                     
                 |  |  |   _    _      __       _____    __    __             
                 |  |  |  | |  | |    /  \     |  _  \  |  |  /  |          
                  \  \/   | |  | |   /    \    | | | |  |  | /  /          
                 / \  \   | |__| |  /  /\  \   | |_| |  |  |/  /          
                |  |  |   |  __  | /  /__\  \  |    /   |      \           
                |  |  |   | |  | | |   __   |  |    \   |  |\   \          
                \     /   | |  | | |  |  |  |  | |\  \  |  | \   \       
                 \___/    |_|  |_| |__|  |__|  |_| \__\ |__|  \__/        
                                                                              
                      - O R C A' S   B I G   F R I E N D -                    
                                      &                                       
                       - I N T E G R A L  F E E D E R -                       
                                                                              
 v1 FN, 2020, v2 2021                                                         
------------------------------------------------------------------------------


Reading SHARK input file neutral.SHARKINP.tmp ... ok
----------------------
SHARK INTEGRAL PACKAGE
----------------------

Number of atoms                             ...     23
Number of basis functions                   ...    452
Number of shells                            ...    180
Maximum angular momentum                    ...      3
Integral batch strategy                     ... SHARK/LIBINT Hybrid
RI-J (if used) integral strategy            ... SPLIT-RIJ (Revised 2003 algorithm where possible)
Printlevel                                  ...      1
Contraction scheme used                     ... SEGMENTED contraction
Coulomb Range Separation                    ... NOT USED
Exchange Range Separation                   ... NOT USED
Finite Nucleus Model                        ... NOT USED
Auxiliary Coulomb fitting basis             ... AVAILABLE
   # of basis functions in Aux-J            ...    751
   # of shells in Aux-J                     ...    243
   Maximum angular momentum in Aux-J        ...      4
Auxiliary J/K fitting basis                 ... NOT available
Auxiliary Correlation fitting basis         ... NOT available
Auxiliary 'external' fitting basis          ... NOT available
Integral threshold                          ...     2.500000e-11
Primitive cut-off                           ...     2.500000e-12
Primitive pair pre-selection threshold      ...     2.500000e-12

Calculating pre-screening integrals         ... done (  0.1 sec) Dimension = 180
Organizing shell pair data                  ... done (  0.4 sec)
Shell pair information
Total number of shell pairs                 ...     16290
Shell pairs after pre-screening             ...     13367
Total number of primitive shell pairs       ...     52337
Primitive shell pairs kept                  ...     29688
          la=0 lb=0:   3572 shell pairs
          la=1 lb=0:   3759 shell pairs
          la=1 lb=1:   1015 shell pairs
          la=2 lb=0:   1988 shell pairs
          la=2 lb=1:   1065 shell pairs
          la=2 lb=2:    296 shell pairs
          la=3 lb=0:    879 shell pairs
          la=3 lb=1:    476 shell pairs
          la=3 lb=2:    254 shell pairs
          la=3 lb=3:     63 shell pairs

Calculating one electron integrals          ... done (  0.0 sec)
Calculating RI/J V-Matrix + Cholesky decomp.... done (  0.0 sec)
Calculating Nuclear repulsion               ... done (  0.0 sec) ENN=    907.090616050776 Eh

SHARK setup successfully completed in   0.9 seconds

Maximum memory used throughout the entire GTOINT-calculation: 29.8 MB


           ************************************************************
           *        Program running with 16 parallel MPI-processes    *
           *              working on a common directory               *
           ************************************************************
-------------------------------------------------------------------------------
                                 ORCA SCF
-------------------------------------------------------------------------------

------------
SCF SETTINGS
------------
Hamiltonian:
 Density Functional     Method          .... DFT(GTOs)
 Exchange Functional    Exchange        .... B88
   X-Alpha parameter    XAlpha          ....  0.666667
   Becke's b parameter  XBeta           ....  0.004200
 Correlation Functional Correlation     .... LYP
 LDA part of GGA corr.  LDAOpt          .... VWN-5
 Gradients option       PostSCFGGA      .... off
 Hybrid DFT is turned on
   Fraction HF Exchange ScalHFX         ....  0.200000
   Scaling of DF-GGA-X  ScalDFX         ....  0.720000
   Scaling of DF-GGA-C  ScalDFC         ....  0.810000
   Scaling of DF-LDA-C  ScalLDAC        ....  1.000000
   Perturbative correction              ....  0.000000
   Density functional embedding theory  .... OFF
   NL short-range parameter             ....  4.800000
 RI-approximation to the Coulomb term is turned on
   Number of AuxJ basis functions       .... 751
   RIJ-COSX (HFX calculated with COS-X)).... on


General Settings:
 Integral files         IntName         .... neutral
 Hartree-Fock type      HFTyp           .... UHF
 Total Charge           Charge          ....    2
 Multiplicity           Mult            ....    2
 Number of Electrons    NEL             ....  109
 Basis Dimension        Dim             ....  452
 Nuclear Repulsion      ENuc            ....    907.0906160508 Eh

Convergence Acceleration:
 DIIS                   CNVDIIS         .... on
   Start iteration      DIISMaxIt       ....     0
   Startup error        DIISStart       ....  0.200000
   # of expansion vecs  DIISMaxEq       ....     5
   Bias factor          DIISBfac        ....   1.050
   Max. coefficient     DIISMaxC        ....  10.000
 Trust-Rad. Augm. Hess. CNVTRAH         .... auto
   Auto Start mean grad. ratio tolernc. ....  1.125000
   Auto Start start iteration           ....    20
   Auto Start num. interpolation iter.  ....    10
   Max. Number of Micro iterations      ....    16
   Max. Number of Macro iterations      .... Maxiter - #DIIS iter
   Number of Davidson start vectors     ....     2
   Converg. threshold I  (grad. norm)   ....   1.000e-05
   Converg. threshold II (energy diff.) ....   1.000e-08
   Grad. Scal. Fac. for Micro threshold ....   0.100
   Minimum threshold for Micro iter.    ....   0.010
   NR start threshold (gradient norm)   ....   0.001
   Initial trust radius                 ....   0.400
   Minimum AH scaling param. (alpha)    ....   1.000
   Maximum AH scaling param. (alpha)    .... 1000.000
   Orbital update algorithm             .... Taylor
   White noise on init. David. guess    .... on
   Maximum white noise                  ....   0.010
   Quad. conv. algorithm                .... NR
 SOSCF                  CNVSOSCF        .... off
 Level Shifting         CNVShift        .... on
   Level shift para.    LevelShift      ....    0.2500
   Turn off err/grad.   ShiftErr        ....    0.0000
 Zerner damping         CNVZerner       .... off
 Static damping         CNVDamp         .... on
   Fraction old density DampFac         ....    0.8500
   Max. Damping (<1)    DampMax         ....    0.9800
   Min. Damping (>=0)   DampMin         ....    0.0000
   Turn off err/grad.   DampErr         ....    0.0300
 Fernandez-Rico         CNVRico         .... off

SCF Procedure:
 Maximum # iterations   MaxIter         ....   125
 SCF integral mode      SCFMode         .... Direct
   Integral package                     .... SHARK and LIBINT hybrid scheme
 Reset frequency        DirectResetFreq ....    20
 Integral Threshold     Thresh          ....  2.500e-11 Eh
 Primitive CutOff       TCut            ....  2.500e-12 Eh

Convergence Tolerance:
 Convergence Check Mode ConvCheckMode   .... Total+1el-Energy
 Convergence forced     ConvForced      .... 0
 Energy Change          TolE            ....  1.000e-08 Eh
 1-El. energy change                    ....  1.000e-05 Eh
 DIIS Error             TolErr          ....  5.000e-07


Diagonalization of the overlap matrix:
Smallest eigenvalue                        ... 9.098e-06
Time for diagonalization                   ...    0.046 sec
Threshold for overlap eigenvalues          ... 1.000e-08
Number of eigenvalues below threshold      ... 0
Time for construction of square roots      ...    0.034 sec
Total time needed                          ...    0.081 sec

Time for model grid setup =    0.193 sec

------------------------------
INITIAL GUESS: MODEL POTENTIAL
------------------------------
Loading Hartree-Fock densities                     ... done
Calculating cut-offs                               ... done
Initializing the effective Hamiltonian             ... done
Setting up the integral package (SHARK)            ... done
Starting the Coulomb interaction                   ... done (   0.2 sec)
Reading the grid                                   ... done
Mapping shells                                     ... done
Starting the XC term evaluation                    ... done (   0.1 sec)
  promolecular density results
     # of electrons  =    110.991278036
     EX              =   -133.199812330
     EC              =     -4.163003115
     EX+EC           =   -137.362815445
Transforming the Hamiltonian                       ... done (   0.0 sec)
Diagonalizing the Hamiltonian                      ... done (   0.0 sec)
Back transforming the eigenvectors                 ... done (   0.0 sec)
Now organizing SCF variables                       ... done
                      ------------------
                      INITIAL GUESS DONE (   0.6 sec)
                      ------------------
-------------------
DFT GRID GENERATION
-------------------

General Integration Accuracy     IntAcc      ... 4.388
Radial Grid Type                 RadialGrid  ... OptM3 with GC (2021)
Angular Grid (max. ang.)         AngularGrid ... 4 (Lebedev-302)
Angular grid pruning method      GridPruning ... 4 (adaptive)
Weight generation scheme         WeightScheme... Becke
Basis function cutoff            BFCut       ... 1.0000e-11
Integration weight cutoff        WCut        ... 1.0000e-14
Angular grids for H and He will be reduced by one unit
Partially contracted basis set               ... off
Rotationally invariant grid construction     ... off

Total number of grid points                  ...   112416
Total number of batches                      ...     1767
Average number of points per batch           ...       63
Average number of grid points per atom       ...     4888
Time for grid setup =    0.928 sec

--------------------
COSX GRID GENERATION
--------------------

GRIDX 1
-------
General Integration Accuracy     IntAcc      ... 3.816
Radial Grid Type                 RadialGrid  ... OptM3 with GC (2021)
Angular Grid (max. ang.)         AngularGrid ... 1 (Lebedev-50)
Angular grid pruning method      GridPruning ... 4 (adaptive)
Weight generation scheme         WeightScheme... Becke
Basis function cutoff            BFCut       ... 1.0000e-11
Integration weight cutoff        WCut        ... 1.0000e-14
Angular grids for H and He will be reduced by one unit
Partially contracted basis set               ... on
Rotationally invariant grid construction     ... off

Total number of grid points                  ...    14124
Total number of batches                      ...      232
Average number of points per batch           ...       60
Average number of grid points per atom       ...      614
UseSFitting                                  ... on

GRIDX 2
-------
General Integration Accuracy     IntAcc      ... 4.020
Radial Grid Type                 RadialGrid  ... OptM3 with GC (2021)
Angular Grid (max. ang.)         AngularGrid ... 2 (Lebedev-110)
Angular grid pruning method      GridPruning ... 4 (adaptive)
Weight generation scheme         WeightScheme... Becke
Basis function cutoff            BFCut       ... 1.0000e-11
Integration weight cutoff        WCut        ... 1.0000e-14
Angular grids for H and He will be reduced by one unit
Partially contracted basis set               ... on
Rotationally invariant grid construction     ... off

Total number of grid points                  ...    30467
Total number of batches                      ...      488
Average number of points per batch           ...       62
Average number of grid points per atom       ...     1325
UseSFitting                                  ... on

GRIDX 3
-------
General Integration Accuracy     IntAcc      ... 4.338
Radial Grid Type                 RadialGrid  ... OptM3 with GC (2021)
Angular Grid (max. ang.)         AngularGrid ... 3 (Lebedev-194)
Angular grid pruning method      GridPruning ... 4 (adaptive)
Weight generation scheme         WeightScheme... Becke
Basis function cutoff            BFCut       ... 1.0000e-11
Integration weight cutoff        WCut        ... 1.0000e-14
Angular grids for H and He will be reduced by one unit
Partially contracted basis set               ... on
Rotationally invariant grid construction     ... off

Total number of grid points                  ...    66930
Total number of batches                      ...     1057
Average number of points per batch           ...       63
Average number of grid points per atom       ...     2910
UseSFitting                                  ... on

Time for X-Grid setup             =    0.884 sec


--------------------
CPCM SOLVATION MODEL
--------------------
CPCM parameters:
  Epsilon                                         ...      80.4000
  Refrac                                          ...       1.3300
  Rsolv                                           ...       1.3000
  Surface type                                    ... GAUSSIAN VDW
  Epsilon function type                           ...         CPCM
Radii:
 Radius for C  used is    3.8550 Bohr (=   2.0400 Ang.)
 Radius for O  used is    3.4469 Bohr (=   1.8240 Ang.)
 Radius for N  used is    3.5149 Bohr (=   1.8600 Ang.)
 Radius for H  used is    2.4944 Bohr (=   1.3200 Ang.)
 Radius for Cu used is    3.1747 Bohr (=   1.6800 Ang.)
Calculating surface                               ...        done! (  0.0s)
GEPOL surface points                              ...         1340
GEPOL Volume                                      ...    1383.0853
GEPOL Surface-area                                ...     785.0264
Calculating surface distance matrix               ...        done! (  0.0s)
Performing Cholesky decomposition & store         ...        done! (  0.2s)
Overall time for CPCM initialization              ...                 0.2s
--------------
SCF ITERATIONS
--------------
ITER       Energy         Delta-E        Max-DP      RMS-DP      [F,P]     Damp
               ***  Starting incremental Fock matrix formation  ***
  0  -2156.3916213499   0.000000000000 0.04588367  0.00035073  0.2865521 0.8500
  1  -2156.4736900282  -0.082068678272 0.07308176  0.00046939  0.2056706 0.8500
                               ***Turning on DIIS***
  2  -2156.5259522582  -0.052262230006 0.05762777  0.00036517  0.1302798 0.8500
  3  -2156.5584203257  -0.032468067490 0.01860332  0.00015998  0.0758228 0.8500
  4  -2156.5817798675  -0.023359541799 0.00596411  0.00008239  0.0528175 0.8500
  5  -2156.5996810887  -0.017901221239 0.00829357  0.00006852  0.0418568 0.8500
  6  -2156.6141561668  -0.014475078104 0.00976484  0.00006436  0.0350187 0.8500
  7  -2156.6261823334  -0.012026166567 0.06309690  0.00039238  0.0296514 0.0000
  8  -2156.6920349637  -0.065852630321 0.00925679  0.00005366  0.0037995 0.0000
  9  -2156.6922028191  -0.000167855368 0.00468759  0.00003024  0.0031917 0.0000
 10  -2156.6923222856  -0.000119466549 0.00407396  0.00002821  0.0012816 0.0000
 11  -2156.6924223090  -0.000100023391 0.00377257  0.00002683  0.0019763 0.0000
 12  -2156.6925152040  -0.000092894980 0.00370329  0.00002741  0.0005956 0.0000
               *** Restarting incremental Fock matrix formation ***
                                   *** Resetting DIIS ***
 13  -2156.6925832915  -0.000068087539 0.00218499  0.00001717  0.0005400 0.0000
 14  -2156.6926360669  -0.000052775394 0.00179030  0.00001336  0.0012567 0.0000
 15  -2156.6926738070  -0.000037740117 0.00149439  0.00001063  0.0017791 0.0000
 16  -2156.6926961073  -0.000022300293 0.00118734  0.00000858  0.0025812 0.0000
 17  -2156.6927074937  -0.000011386407 0.00097607  0.00000719  0.0034303 0.0000
 18  -2156.6927137440  -0.000006250231 0.00065928  0.00000626  0.0041222 0.0000
 19  -2156.6927220607  -0.000008316709 0.00072722  0.00000631  0.0046944 0.0000

 WARNING: the maximum gradient error descreased on average only by a factor   0.8
          during the last 20 iterations

                      *** Initiating the TRAH-SCF procedure ***


TRAH GRIDX
----------

General Integration Accuracy     IntAcc      ... 3.067
Radial Grid Type                 RadialGrid  ... OptM3 with GC (2021)
Angular Grid (max. ang.)         AngularGrid ... 1 (Lebedev-50)
Angular grid pruning method      GridPruning ... 4 (adaptive)
Weight generation scheme         WeightScheme... Becke
Basis function cutoff            BFCut       ... 1.0000e-11
Integration weight cutoff        WCut        ... 1.0000e-14
Angular grids for H and He will be reduced by one unit
Partially contracted basis set               ... on
Rotationally invariant grid construction     ... off

Total number of grid points                  ...     7597
Total number of batches                      ...      131
Average number of points per batch           ...       57
Average number of grid points per atom       ...      330


TRAH GRID
---------

General Integration Accuracy     IntAcc      ... 3.467
Radial Grid Type                 RadialGrid  ... OptM3 with GC (2021)
Angular Grid (max. ang.)         AngularGrid ... 1 (Lebedev-50)
Angular grid pruning method      GridPruning ... 4 (adaptive)
Weight generation scheme         WeightScheme... Becke
Basis function cutoff            BFCut       ... 1.0000e-11
Integration weight cutoff        WCut        ... 1.0000e-14
Angular grids for H and He will be reduced by one unit
Partially contracted basis set               ... off
Rotationally invariant grid construction     ... off

Total number of grid points                  ...    18852
Total number of batches                      ...      303
Average number of points per batch           ...       62
Average number of grid points per atom       ...      820

 --------------------------------------------------------------------------------------------
   Iter.        energy            ||Error||_2        Shift      TRadius  Mac/Mic        Rej.
 --------------------------------------------------------------------------------------------
    0      -2156.692736776334     9.979185e-03                     0.400 (TRAH MAcro)   No
    0     dE    -3.719743e-05     1.128407e-02    -3.7197e-05      0.004 (TRAH MIcro)
    0     dE    -1.317585e-04     1.202792e-02    -1.3150e-04      0.044 (TRAH MIcro)
    0     dE    -1.761667e-04     2.797718e-03    -1.7538e-04      0.067 (TRAH MIcro)
    0     dE    -1.798095e-04     1.229213e-03    -1.7894e-04      0.070 (TRAH MIcro)
    0     dE    -1.817139e-04     1.010053e-03    -1.8083e-04      0.070 (TRAH MIcro)
    0     dE    -1.819141e-04     3.299727e-04    -1.8104e-04      0.069 (TRAH MIcro)
    1      -2156.692917268791     1.482033e-03                     0.480 (TRAH MAcro)   No
    1     dE    -2.864017e-07     1.537701e-03    -2.8640e-07      0.000 (TRAH MIcro)
    1     dE    -6.888337e-07     5.209326e-04    -6.8883e-07      0.001 (TRAH MIcro)
    1     dE    -8.331558e-07     2.205814e-04    -8.3315e-07      0.002 (TRAH MIcro)
    1     dE    -8.532651e-07     1.289338e-04    -8.5326e-07      0.002 (TRAH MIcro)
    2      -2156.692918127028     1.293416e-04                           (NR   MAcro)
    2     dE    -5.421023e-09     8.247626e-05                           (NR   MIcro)
    2     dE    -9.905052e-09     4.741432e-05                           (NR   MIcro)
    2     dE    -1.129800e-08     4.228233e-05                           (NR   MIcro)
    2     dE    -1.209411e-08     2.342773e-05                           (NR   MIcro)
    2     dE    -1.223128e-08     9.948937e-06                           (NR   MIcro)
    2     dE    -1.228783e-08     5.636214e-06                           (NR   MIcro)
    2     dE    -1.230398e-08     3.128792e-06                           (NR   MIcro)
    2     dE    -1.231046e-08     1.680249e-06                           (NR   MIcro)
    2     dE    -1.231198e-08     1.026577e-06                           (NR   MIcro)
    2     dE    -1.231237e-08     3.184486e-07                           (NR   MIcro)
    3      -2156.692918141825     7.270433e-07                           (NR   MAcro)
    3     dE    -2.371422e-13     3.120802e-07                           (NR   MIcro)
    4      -2156.692918141822     3.114951e-07                           (NR   MAcro)

               *****************************************************
               *                     SUCCESS                       *
               *           SCF CONVERGED AFTER  46 CYCLES          *
               *****************************************************

Old exchange energy                            =    -26.720438261 Eh
New exchange energy                            =    -26.720428503 Eh
Exchange energy change after final integration =      0.000009759 Eh
Total energy after final integration           =  -2156.692908383 Eh
Final COS-X integration done in                =     8.164 sec

----------------
TOTAL SCF ENERGY
----------------

Total Energy       :        -2156.69290838 Eh          -58686.59761 eV

Components:
Nuclear Repulsion  :          907.09061605 Eh           24683.19053 eV
Electronic Energy  :        -3063.78352443 Eh          -83369.78814 eV
One Electron Energy:        -4756.81733826 Eh         -129439.58036 eV
Two Electron Energy:         1693.03381382 Eh           46069.79222 eV
Max COSX asymmetry :            0.00000042 Eh               0.00001 eV
CPCM Dielectric    :           -0.33448204 Eh              -9.10172 eV

Virial components:
Potential Energy   :        -4308.26025353 Eh         -117233.72155 eV
Kinetic Energy     :         2151.56734515 Eh           58547.12394 eV
Virial Ratio       :            2.00238225


DFT components:
N(Alpha)           :       55.000064481546 electrons
N(Beta)            :       54.000068276612 electrons
N(Total)           :      109.000132758158 electrons
E(X)               :     -106.494830539000 Eh       
E(C)               :       -4.828527392872 Eh       
E(XC)              :     -111.323357931872 Eh       
DFET-embed. en.    :        0.000000000000 Eh       
CPCM Solvation Model Properties:
Surface-charge          :           -2.02320665
Charge-correction       :            0.00596680 Eh               0.16236 eV
Free-energy (cav+disp)  :  This term is not implemented in the current solvation scheme

---------------
SCF CONVERGENCE
---------------

  Last Energy change         ...    3.1832e-12  Tolerance :   1.0000e-08
  Last Orbital Gradient      ...    3.1150e-07  Tolerance :   1.0000e-05
  Last Orbital Rotation      ...    5.8764e-07

             **** THE GBW FILE WAS UPDATED (neutral.gbw) ****
             **** DENSITY neutral.scfp WAS UPDATED ****
             **** ENERGY FILE WAS UPDATED (neutral.en.tmp) ****
----------------------
UHF SPIN CONTAMINATION
----------------------

Warning: in a DFT calculation there is little theoretical justification to 
         calculate <S**2> as in Hartree-Fock theory. We will do it anyways
         but you should keep in mind that the values have only limited relevance

Expectation value of <S**2>     :     0.757147
Ideal value S*(S+1) for S=0.5   :     0.750000
Deviation                       :     0.007147

             **** THE GBW FILE WAS UPDATED (neutral.gbw) ****
             **** DENSITY neutral.scfp WAS UPDATED ****
----------------
ORBITAL ENERGIES
----------------
                 SPIN UP ORBITALS
  NO   OCC          E(Eh)            E(eV) 
   0   1.0000    -323.006064     -8789.4418 
   1   1.0000     -38.790908     -1055.5543 
   2   1.0000     -33.996088      -925.0806 
   3   1.0000     -33.996045      -925.0794 
   4   1.0000     -33.995811      -925.0730 
   5   1.0000     -19.234623      -523.4007 
   6   1.0000     -19.208516      -522.6903 
   7   1.0000     -14.359260      -390.7353 
   8   1.0000     -10.294615      -280.1307 
   9   1.0000     -10.289137      -279.9816 
  10   1.0000     -10.233445      -278.4662 
  11   1.0000     -10.226555      -278.2787 
  12   1.0000     -10.214041      -277.9382 
  13   1.0000     -10.212129      -277.8862 
  14   1.0000     -10.207813      -277.7687 
  15   1.0000     -10.204593      -277.6811 
  16   1.0000      -4.287170      -116.6598 
  17   1.0000      -2.784246       -75.7632 
  18   1.0000      -2.782099       -75.7048 
  19   1.0000      -2.781008       -75.6751 
  20   1.0000      -1.130869       -30.7725 
  21   1.0000      -1.105743       -30.0888 
  22   1.0000      -0.936196       -25.4752 
  23   1.0000      -0.896342       -24.3907 
  24   1.0000      -0.813053       -22.1243 
  25   1.0000      -0.786756       -21.4087 
  26   1.0000      -0.742630       -20.2080 
  27   1.0000      -0.681891       -18.5552 
  28   1.0000      -0.668299       -18.1853 
  29   1.0000      -0.621100       -16.9010 
  30   1.0000      -0.601018       -16.3545 
  31   1.0000      -0.580100       -15.7853 
  32   1.0000      -0.549411       -14.9502 
  33   1.0000      -0.528708       -14.3869 
  34   1.0000      -0.515623       -14.0308 
  35   1.0000      -0.490109       -13.3365 
  36   1.0000      -0.485029       -13.1983 
  37   1.0000      -0.466264       -12.6877 
  38   1.0000      -0.464500       -12.6397 
  39   1.0000      -0.454732       -12.3739 
  40   1.0000      -0.439612       -11.9625 
  41   1.0000      -0.431006       -11.7283 
  42   1.0000      -0.419095       -11.4042 
  43   1.0000      -0.391198       -10.6450 
  44   1.0000      -0.385162       -10.4808 
  45   1.0000      -0.376710       -10.2508 
  46   1.0000      -0.367757       -10.0072 
  47   1.0000      -0.297265        -8.0890 
  48   1.0000      -0.292176        -7.9505 
  49   1.0000      -0.277639        -7.5549 
  50   1.0000      -0.275895        -7.5075 
  51   1.0000      -0.275796        -7.5048 
  52   1.0000      -0.274240        -7.4625 
  53   1.0000      -0.265555        -7.2261 
  54   1.0000      -0.253406        -6.8955 
  55   0.0000      -0.084477        -2.2987 
  56   0.0000      -0.046165        -1.2562 
  57   0.0000      -0.044596        -1.2135 
  58   0.0000       0.022411         0.6098 
  59   0.0000       0.030617         0.8331 
  60   0.0000       0.045003         1.2246 
  61   0.0000       0.055329         1.5056 
  62   0.0000       0.062420         1.6985 
  63   0.0000       0.066190         1.8011 
  64   0.0000       0.076315         2.0766 
  65   0.0000       0.091661         2.4942 
  66   0.0000       0.092856         2.5267 
  67   0.0000       0.102918         2.8005 
  68   0.0000       0.107290         2.9195 
  69   0.0000       0.114916         3.1270 
  70   0.0000       0.120379         3.2757 
  71   0.0000       0.130504         3.5512 
  72   0.0000       0.132792         3.6135 
  73   0.0000       0.143727         3.9110 
  74   0.0000       0.148734         4.0472 
  75   0.0000       0.155958         4.2438 
  76   0.0000       0.166239         4.5236 
  77   0.0000       0.174940         4.7604 
  78   0.0000       0.179501         4.8845 
  79   0.0000       0.186097         5.0639 
  80   0.0000       0.202956         5.5227 
  81   0.0000       0.210302         5.7226 
  82   0.0000       0.215472         5.8633 
  83   0.0000       0.219038         5.9603 
  84   0.0000       0.225858         6.1459 
  85   0.0000       0.237371         6.4592 
  86   0.0000       0.241065         6.5597 
  87   0.0000       0.242888         6.6093 
  88   0.0000       0.256460         6.9786 
  89   0.0000       0.266510         7.2521 
  90   0.0000       0.273227         7.4349 
  91   0.0000       0.280704         7.6383 
  92   0.0000       0.285497         7.7688 
  93   0.0000       0.295985         8.0542 
  94   0.0000       0.304267         8.2795 
  95   0.0000       0.307121         8.3572 
  96   0.0000       0.314844         8.5673 
  97   0.0000       0.317832         8.6487 
  98   0.0000       0.324171         8.8211 
  99   0.0000       0.325821         8.8660 
 100   0.0000       0.340955         9.2779 
 101   0.0000       0.342522         9.3205 
 102   0.0000       0.346988         9.4420 
 103   0.0000       0.355045         9.6613 
 104   0.0000       0.369369        10.0510 
 105   0.0000       0.380140        10.3441 
 106   0.0000       0.384352        10.4587 
 107   0.0000       0.390587        10.6284 
 108   0.0000       0.404810        11.0154 
 109   0.0000       0.406222        11.0539 
 110   0.0000       0.414266        11.2727 
 111   0.0000       0.419689        11.4203 
 112   0.0000       0.424156        11.5419 
 113   0.0000       0.434124        11.8131 
 114   0.0000       0.448054        12.1922 
 115   0.0000       0.454493        12.3674 
 116   0.0000       0.466720        12.7001 
 117   0.0000       0.469560        12.7774 
 118   0.0000       0.475348        12.9349 
 119   0.0000       0.487502        13.2656 
 120   0.0000       0.498953        13.5772 
 121   0.0000       0.505037        13.7428 
 122   0.0000       0.521199        14.1825 
 123   0.0000       0.530408        14.4331 
 124   0.0000       0.537027        14.6133 
 125   0.0000       0.547051        14.8860 
 126   0.0000       0.553539        15.0626 
 127   0.0000       0.560443        15.2504 
 128   0.0000       0.571503        15.5514 
 129   0.0000       0.586417        15.9572 
 130   0.0000       0.590932        16.0801 
 131   0.0000       0.598535        16.2870 
 132   0.0000       0.619409        16.8550 
 133   0.0000       0.627426        17.0731 
 134   0.0000       0.646401        17.5895 
 135   0.0000       0.649881        17.6842 
 136   0.0000       0.665352        18.1052 
 137   0.0000       0.678035        18.4503 
 138   0.0000       0.684806        18.6345 
 139   0.0000       0.692638        18.8476 
 140   0.0000       0.712940        19.4001 
 141   0.0000       0.718241        19.5443 
 142   0.0000       0.726150        19.7595 
 143   0.0000       0.755382        20.5550 
 144   0.0000       0.760178        20.6855 
 145   0.0000       0.767829        20.8937 
 146   0.0000       0.790475        21.5099 
 147   0.0000       0.810716        22.0607 
 148   0.0000       0.821529        22.3549 
 149   0.0000       0.834553        22.7093 
 150   0.0000       0.840233        22.8639 
 151   0.0000       0.849966        23.1288 
 152   0.0000       0.855919        23.2907 
 153   0.0000       0.864144        23.5146 
 154   0.0000       0.889712        24.2103 
 155   0.0000       0.909204        24.7407 
 156   0.0000       0.913171        24.8486 
 157   0.0000       0.929475        25.2923 
 158   0.0000       0.938024        25.5249 
 159   0.0000       0.959213        26.1015 
 160   0.0000       0.973658        26.4946 
 161   0.0000       0.983414        26.7600 
 162   0.0000       0.998400        27.1678 
 163   0.0000       1.008197        27.4344 
 164   0.0000       1.025902        27.9162 
 165   0.0000       1.034766        28.1574 
 166   0.0000       1.042344        28.3636 
 167   0.0000       1.057493        28.7758 
 168   0.0000       1.084074        29.4991 
 169   0.0000       1.097999        29.8781 
 170   0.0000       1.111135        30.2355 
 171   0.0000       1.123028        30.5591 
 172   0.0000       1.138310        30.9750 
 173   0.0000       1.152226        31.3537 
 174   0.0000       1.165848        31.7243 
 175   0.0000       1.178616        32.0718 
 176   0.0000       1.190065        32.3833 
 177   0.0000       1.208240        32.8779 
 178   0.0000       1.231423        33.5087 
 179   0.0000       1.234862        33.6023 
 180   0.0000       1.241159        33.7737 
 181   0.0000       1.271617        34.6025 
 182   0.0000       1.282191        34.8902 
 183   0.0000       1.299770        35.3685 
 184   0.0000       1.310584        35.6628 
 185   0.0000       1.321559        35.9614 
 186   0.0000       1.328446        36.1488 
 187   0.0000       1.347276        36.6612 
 188   0.0000       1.373724        37.3809 
 189   0.0000       1.383030        37.6341 
 190   0.0000       1.396520        38.0012 
 191   0.0000       1.415933        38.5295 
 192   0.0000       1.441033        39.2125 
 193   0.0000       1.464708        39.8567 
 194   0.0000       1.467791        39.9406 
 195   0.0000       1.496793        40.7298 
 196   0.0000       1.500624        40.8340 
 197   0.0000       1.515495        41.2387 
 198   0.0000       1.531507        41.6744 
 199   0.0000       1.551163        42.2093 
 200   0.0000       1.565064        42.5875 
 201   0.0000       1.572642        42.7938 
 202   0.0000       1.580443        43.0060 
 203   0.0000       1.591257        43.3003 
 204   0.0000       1.595318        43.4108 
 205   0.0000       1.606694        43.7204 
 206   0.0000       1.634206        44.4690 
 207   0.0000       1.649602        44.8879 
 208   0.0000       1.652240        44.9597 
 209   0.0000       1.674312        45.5604 
 210   0.0000       1.690225        45.9934 
 211   0.0000       1.698170        46.2096 
 212   0.0000       1.713569        46.6286 
 213   0.0000       1.731944        47.1286 
 214   0.0000       1.734821        47.2069 
 215   0.0000       1.780390        48.4469 
 216   0.0000       1.785922        48.5974 
 217   0.0000       1.802394        49.0456 
 218   0.0000       1.810284        49.2603 
 219   0.0000       1.825731        49.6807 
 220   0.0000       1.833824        49.9009 
 221   0.0000       1.860162        50.6176 
 222   0.0000       1.875809        51.0434 
 223   0.0000       1.878396        51.1138 
 224   0.0000       1.894592        51.5545 
 225   0.0000       1.908534        51.9339 
 226   0.0000       1.920024        52.2465 
 227   0.0000       1.932368        52.5824 
 228   0.0000       1.940953        52.8160 
 229   0.0000       1.960170        53.3389 
 230   0.0000       1.972123        53.6642 
 231   0.0000       1.984784        54.0087 
 232   0.0000       2.012432        54.7611 
 233   0.0000       2.032272        55.3009 
 234   0.0000       2.060975        56.0820 
 235   0.0000       2.068116        56.2763 
 236   0.0000       2.085959        56.7618 
 237   0.0000       2.099666        57.1348 
 238   0.0000       2.117370        57.6166 
 239   0.0000       2.123804        57.7916 
 240   0.0000       2.132459        58.0272 
 241   0.0000       2.146154        58.3998 
 242   0.0000       2.166017        58.9403 
[...]
      8      -0.000011  -0.000005   0.000047
      9      -0.000021  -0.000014  -0.000223
     10       0.000028   0.000045   0.000753
     11       0.000029  -0.000004   0.000042
     12      -0.000238  -0.000003   0.000032
     13       0.000058   0.000500  -0.000039
     14       0.000346  -0.000227  -0.000051
     15      -0.000501   0.000457  -0.000025
     16      -0.000908  -0.002236  -0.000015
     17      -0.000616   0.000286   0.000064
     18       0.014198   0.002360   0.000051
     19      -0.028605  -0.075109  -0.000009
     20      -0.074258   0.029398  -0.000017
     21      -0.379081   0.135883  -0.000081
     22      -0.025749  -0.008856  -0.000015
     23       0.638555  -0.225831   0.000358
     24       0.051347  -0.269416  -0.000153
     25      -0.124381   0.643101   0.000272
     26       0.065444  -0.441606  -0.000179
     27       0.134597   0.100650  -0.000118
     28       0.545848   0.404471  -0.000343
     29       0.320254   0.261271  -0.000173
     30       0.000026   0.000010  -0.000103
     31      -0.000010   0.000004  -0.000154
     32       0.000002   0.000012  -0.000035
     33      -0.000004  -0.000013  -0.000014
     34       0.000008  -0.000004   0.000183
     35       0.000008   0.000006   0.000007
     36      -0.000002  -0.000004   0.000124
     37       0.000001   0.000001  -0.001048
     38       0.000002   0.000004  -0.000083
     39      -0.000000  -0.000000  -0.000160
     40       0.000001   0.000003  -0.000107
     41       0.000002   0.000009  -0.000044
     42      -0.000009   0.000010  -0.447992
     43      -0.000015   0.000012  -0.876196
     44      -0.000016  -0.000008  -0.166304
     45      -0.000013   0.000009   0.000458
     46      -0.000021  -0.000024   0.004550
     47       0.000002  -0.000019   0.000468
     48      -0.000462   0.001871   0.000380
     49       0.000476  -0.002881  -0.000060
     50      -0.000280   0.000932   0.000190
     51      -0.001977  -0.001292   0.000085
     52      -0.001722  -0.001820  -0.000003
     53       0.000224   0.000089   0.000072
     54       0.001361  -0.010110  -0.000007
     55      -0.001445   0.017268   0.000024
     56       0.001623  -0.011560   0.000008
     57       0.005540   0.004435   0.000036
     58       0.013980   0.012185  -0.000068
     59       0.009324   0.007154  -0.000077
     60      -0.000031   0.000024   0.000262
     61       0.000004  -0.000077  -0.000347
     62       0.000015   0.000006   0.000014
     63       0.000010   0.000017  -0.000445
     64      -0.000017   0.000040  -0.000977
     65       0.000035   0.000027  -0.000184
     66       0.000001   0.000000   0.000024
     67       0.000002   0.000006   0.000007
     68      -0.000005   0.000002   0.000006


-----------
IR SPECTRUM
-----------

 Mode   freq       eps      Int      T**2         TX        TY        TZ
       cm**-1   L/(mol*cm) km/mol    a.u.
----------------------------------------------------------------------------
  6:     27.36   0.003120   15.77  0.035590  (-0.020684  0.129394 -0.135717)
  7:     54.93   0.002253   11.38  0.012798  ( 0.015231  0.055558  0.097359)
  8:     88.60   0.001876    9.48  0.006607  ( 0.067054  0.042031 -0.018563)
  9:     94.16   0.001205    6.09  0.003993  (-0.035462 -0.042046 -0.031111)
 10:    113.42   0.001482    7.49  0.004077  (-0.028442  0.057035  0.003901)
 11:    161.89   0.001794    9.07  0.003459  (-0.011428  0.000964 -0.057683)
 12:    207.09   0.000502    2.54  0.000756  (-0.008528  0.020115 -0.016706)
 13:    239.30   0.000394    1.99  0.000513  (-0.001418  0.012572 -0.018798)
 14:    250.17   0.000652    3.30  0.000813  (-0.021290 -0.002307 -0.018838)
 15:    310.88   0.002502   12.64  0.002511  ( 0.042432  0.017936 -0.019729)
 16:    323.11   0.001429    7.22  0.001381  ( 0.028632 -0.009762 -0.021575)
 17:    355.97   0.000700    3.54  0.000613  ( 0.009357 -0.000479  0.022927)
 18:    426.40   0.004984   25.19  0.003648  ( 0.046130  0.012191 -0.037030)
 19:    438.20   0.026510  133.97  0.018879  (-0.016379 -0.010559  0.136013)
 20:    477.90   0.006703   33.87  0.004377  ( 0.011354  0.003833 -0.065064)
 21:    483.91   0.000576    2.91  0.000371  (-0.006918  0.016174  0.007863)
 22:    555.08   0.000590    2.98  0.000332  (-0.003769  0.017712 -0.001978)
 23:    615.19   0.005603   28.32  0.002842  (-0.003612 -0.052709 -0.007135)
 24:    638.00   0.003196   16.15  0.001563  ( 0.013426 -0.008342 -0.036240)
 25:    740.97   0.003619   18.29  0.001524  (-0.021198  0.024701 -0.021558)
 26:    768.45   0.001101    5.56  0.000447  (-0.017390  0.006991 -0.009784)
 27:    789.75   0.003001   15.16  0.001186  ( 0.003749 -0.033991  0.004029)
 28:    821.12   0.003006   15.19  0.001142  ( 0.019862  0.015753 -0.022357)
 29:    843.53   0.011312   57.17  0.004185  (-0.011448  0.000202  0.063669)
 30:    887.08   0.008189   41.38  0.002881  ( 0.013747  0.003203 -0.051783)
 31:    930.06   0.000381    1.93  0.000128  (-0.009355  0.005019  0.003909)
 32:    939.08   0.005883   29.73  0.001955  ( 0.005041  0.043780  0.003609)
 33:    971.97   0.000308    1.56  0.000099  ( 0.009214  0.003422  0.001483)
 34:    992.25   0.000054    0.27  0.000017  ( 0.002723  0.000031 -0.003070)
 35:   1006.65   0.004591   23.20  0.001423  ( 0.036836  0.001314  0.008040)
 36:   1105.40   0.000591    2.98  0.000167  ( 0.009088  0.007180  0.005709)
 37:   1140.23   0.029623  149.70  0.008107  (-0.066640  0.051951  0.031105)
 38:   1144.25   0.018851   95.27  0.005141  (-0.021418  0.062934 -0.026865)
 39:   1174.09   0.004459   22.53  0.001185  ( 0.027841 -0.019627  0.004988)
 40:   1197.75   0.000222    1.12  0.000058  (-0.002929 -0.006990 -0.000691)
 41:   1273.21   0.006122   30.94  0.001500  ( 0.023986  0.029647  0.006797)
 42:   1285.78   0.014659   74.08  0.003558  (-0.035914  0.047590 -0.001779)
 43:   1332.57   0.009235   46.67  0.002163  ( 0.014519 -0.044165 -0.001125)
 44:   1344.41   0.002099   10.61  0.000487  ( 0.000766 -0.020950 -0.006900)
 45:   1362.58   0.001292    6.53  0.000296  (-0.006099 -0.016071  0.000569)
 46:   1384.67   0.010459   52.86  0.002357  (-0.026831  0.040434 -0.001536)
 47:   1414.30   0.007444   37.62  0.001643  ( 0.039324 -0.008964  0.003980)
 48:   1423.37   0.008127   41.07  0.001782  (-0.040309  0.004205  0.011808)
 49:   1479.90   0.031343  158.39  0.006609  ( 0.023764 -0.077670 -0.003446)
 50:   1481.86   0.004046   20.45  0.000852  ( 0.005270 -0.028460 -0.003776)
 51:   1501.35   0.005706   28.84  0.001186  ( 0.024909  0.002392 -0.023662)
 52:   1513.29   0.019917  100.65  0.004107  (-0.061230 -0.012033 -0.014603)
 53:   1529.78   0.001556    7.86  0.000317  (-0.014768 -0.008896 -0.004485)
 54:   1531.35   0.044886  226.83  0.009147  ( 0.093916 -0.002359  0.017924)
 55:   1619.63   0.061378  310.18  0.011826  ( 0.097608 -0.046133  0.013052)
 56:   1635.57   0.014539   73.47  0.002774  (-0.005138  0.049790  0.016388)
 57:   1644.34   0.012959   65.49  0.002459  ( 0.009423  0.017343 -0.045495)
 58:   3042.11   0.001644    8.31  0.000169  (-0.008321  0.000890 -0.009930)
 59:   3091.00   0.001293    6.53  0.000131  (-0.003816 -0.010554 -0.002137)
 60:   3097.62   0.001278    6.46  0.000129  (-0.003674 -0.000721 -0.010711)
 61:   3154.26   0.000691    3.49  0.000068  (-0.000704 -0.008224 -0.000445)
 62:   3176.63   0.000068    0.34  0.000007  (-0.001841  0.001806  0.000016)
 63:   3184.83   0.000349    1.76  0.000034  (-0.004435  0.003799 -0.000330)
 64:   3204.50   0.000044    0.22  0.000004  ( 0.001093  0.001751  0.000188)
 65:   3411.55   0.018651   94.25  0.001706  ( 0.041068  0.004352  0.000751)
 66:   3477.64   0.030601  154.64  0.002746  (-0.009486  0.018735  0.048010)
 67:   3484.06   0.029300  148.07  0.002624  (-0.000304  0.047802 -0.018419)
 68:   3723.35   0.067340  340.31  0.005644  (-0.007296 -0.074237 -0.008918)

* The epsilon (eps) is given for a Dirac delta lineshape.
** The dipole moment derivative (T) already includes vibrational overlap.

--------------
RAMAN SPECTRUM  
--------------

 Mode    freq (cm**-1)   Activity   Depolarization
-------------------------------------------------------------------
   6:        27.36      3.395635      0.742546
   7:        54.93      3.509633      0.699181
   8:        88.60      5.437327      0.695847
   9:        94.16      3.853116      0.314199
  10:       113.42      0.760913      0.296810
  11:       161.89      1.876885      0.747974
  12:       207.09     60.957395      0.346694
  13:       239.30      2.187994      0.343662
  14:       250.17      8.979111      0.299031
  15:       310.88     51.320229      0.285581
  16:       323.11     45.371792      0.260522
  17:       355.97     38.422910      0.322415
  18:       426.40    242.766632      0.398580
  19:       438.20     62.238251      0.366288
  20:       477.90      1.986009      0.680706
  21:       483.91    208.067476      0.331971
  22:       555.08    375.514009      0.329506
  23:       615.19    396.448029      0.352210
  24:       638.00    122.877783      0.419059
  25:       740.97     86.675651      0.643284
  26:       768.45     15.721747      0.703205
  27:       789.75      4.686402      0.312803
  28:       821.12    196.278943      0.191365
  29:       843.53     20.889624      0.192873
  30:       887.08     25.538630      0.238505
  31:       930.06     42.404243      0.328478
  32:       939.08      2.031731      0.589454
  33:       971.97      6.026784      0.059317
  34:       992.25      2.504593      0.735282
  35:      1006.65     12.049609      0.516556
  36:      1105.40     43.512740      0.350674
  37:      1140.23    117.914454      0.338476
  38:      1144.25     36.416154      0.592833
  39:      1174.09   1041.327051      0.313805
  40:      1197.75     89.931136      0.226152
  41:      1273.21    658.783910      0.308680
  42:      1285.78     92.066806      0.430545
  43:      1332.57    467.717729      0.414018
  44:      1344.41     14.281004      0.675188
  45:      1362.58     17.391955      0.463937
  46:      1384.67    665.183586      0.240561
  47:      1414.30   5038.193734      0.341316
  48:      1423.37     19.359781      0.609121
  49:      1479.90     78.013015      0.439918
  50:      1481.86     42.995799      0.627548
  51:      1501.35    148.260467      0.343398
  52:      1513.29  10072.632440      0.320152
  53:      1529.78    331.809522      0.257673
  54:      1531.35    187.590093      0.215968
  55:      1619.63    931.303756      0.155346
  56:      1635.57      9.024974      0.690336
  57:      1644.34      8.544789      0.669932
  58:      3042.11    669.562519      0.078459
  59:      3091.00    236.322662      0.699027
  60:      3097.62    153.889146      0.137245
  61:      3154.26     64.448801      0.741604
  62:      3176.63    309.812230      0.215761
  63:      3184.83    285.266144      0.421641
  64:      3204.50    459.712442      0.141167
  65:      3411.55    211.596284      0.012251
  66:      3477.64     85.633930      0.728703
  67:      3484.06     66.165250      0.749962
  68:      3723.35    317.365327      0.637061

The first frequency considered to be a vibration is 6
The total number of vibrations considered is 63


--------------------------
THERMOCHEMISTRY AT 298.15K
--------------------------

Temperature         ... 298.15 K
Pressure            ... 1.00 atm
Total Mass          ... 216.73 AMU

Throughout the following assumptions are being made:
  (1) The electronic state is orbitally nondegenerate
      but the spin degeneracy is treated
  (2) There are no thermally accessible electronically excited states
  (3) Hindered rotations indicated by low frequency modes are not
      treated as such but are treated as vibrations and this may
      cause some error
  (4) All equations used are the standard statistical mechanics
      equations for an ideal gas
  (5) All vibrations are strictly harmonic

freq.      27.36  E(vib)   ...       0.55 
freq.      54.93  E(vib)   ...       0.52 
freq.      88.60  E(vib)   ...       0.47 
freq.      94.16  E(vib)   ...       0.47 
freq.     113.42  E(vib)   ...       0.45 
freq.     161.89  E(vib)   ...       0.39 
freq.     207.09  E(vib)   ...       0.34 
freq.     239.30  E(vib)   ...       0.31 
freq.     250.17  E(vib)   ...       0.31 
freq.     310.88  E(vib)   ...       0.26 
freq.     323.11  E(vib)   ...       0.25 
freq.     355.97  E(vib)   ...       0.22 
freq.     426.40  E(vib)   ...       0.18 
freq.     438.20  E(vib)   ...       0.17 
freq.     477.90  E(vib)   ...       0.15 
freq.     483.91  E(vib)   ...       0.15 
freq.     555.08  E(vib)   ...       0.12 
freq.     615.19  E(vib)   ...       0.10 
freq.     638.00  E(vib)   ...       0.09 
freq.     740.97  E(vib)   ...       0.06 
freq.     768.45  E(vib)   ...       0.06 
freq.     789.75  E(vib)   ...       0.05 
freq.     821.12  E(vib)   ...       0.05 
freq.     843.53  E(vib)   ...       0.04 
freq.     887.08  E(vib)   ...       0.04 
freq.     930.06  E(vib)   ...       0.03 
freq.     939.08  E(vib)   ...       0.03 
freq.     971.97  E(vib)   ...       0.03 
freq.     992.25  E(vib)   ...       0.02 
freq.    1006.65  E(vib)   ...       0.02 
freq.    1105.40  E(vib)   ...       0.02 
freq.    1140.23  E(vib)   ...       0.01 
freq.    1144.25  E(vib)   ...       0.01 
freq.    1174.09  E(vib)   ...       0.01 
freq.    1197.75  E(vib)   ...       0.01 
freq.    1273.21  E(vib)   ...       0.01 
freq.    1285.78  E(vib)   ...       0.01 
freq.    1332.57  E(vib)   ...       0.01 
freq.    1344.41  E(vib)   ...       0.01 
freq.    1362.58  E(vib)   ...       0.01 
freq.    1384.67  E(vib)   ...       0.00 
freq.    1414.30  E(vib)   ...       0.00 
freq.    1423.37  E(vib)   ...       0.00 
freq.    1479.90  E(vib)   ...       0.00 
freq.    1481.86  E(vib)   ...       0.00 
freq.    1501.35  E(vib)   ...       0.00 
freq.    1513.29  E(vib)   ...       0.00 
freq.    1529.78  E(vib)   ...       0.00 
freq.    1531.35  E(vib)   ...       0.00 
freq.    1619.63  E(vib)   ...       0.00 
freq.    1635.57  E(vib)   ...       0.00 
freq.    1644.34  E(vib)   ...       0.00 
freq.    3042.11  E(vib)   ...       0.00 
freq.    3091.00  E(vib)   ...       0.00 
freq.    3097.62  E(vib)   ...       0.00 
freq.    3154.26  E(vib)   ...       0.00 
freq.    3176.63  E(vib)   ...       0.00 
freq.    3184.83  E(vib)   ...       0.00 
freq.    3204.50  E(vib)   ...       0.00 
freq.    3411.55  E(vib)   ...       0.00 
freq.    3477.64  E(vib)   ...       0.00 
freq.    3484.06  E(vib)   ...       0.00 
freq.    3723.35  E(vib)   ...       0.00 

------------
INNER ENERGY
------------

The inner energy is: U= E(el) + E(ZPE) + E(vib) + E(rot) + E(trans)
    E(el)   - is the total energy from the electronic structure calculation
              = E(kin-el) + E(nuc-el) + E(el-el) + E(nuc-nuc)
    E(ZPE)  - the the zero temperature vibrational energy from the frequency calculation
    E(vib)  - the the finite temperature correction to E(ZPE) due to population
              of excited vibrational states
    E(rot)  - is the rotational thermal energy
    E(trans)- is the translational thermal energy

Summary of contributions to the inner energy U:
Electronic energy                ...  -2156.79650277 Eh
Zero point energy                ...      0.18708239 Eh     117.40 kcal/mol
Thermal vibrational correction   ...      0.00963384 Eh       6.05 kcal/mol
Thermal rotational correction    ...      0.00141627 Eh       0.89 kcal/mol
Thermal translational correction ...      0.00141627 Eh       0.89 kcal/mol
-----------------------------------------------------------------------
Total thermal energy                  -2156.59695401 Eh


Summary of corrections to the electronic energy:
(perhaps to be used in another calculation)
Total thermal correction                  0.01246638 Eh       7.82 kcal/mol
Non-thermal (ZPE) correction              0.18708239 Eh     117.40 kcal/mol
-----------------------------------------------------------------------
Total correction                          0.19954877 Eh     125.22 kcal/mol


--------
ENTHALPY
--------

The enthalpy is H = U + kB*T
                kB is Boltzmann's constant
Total free energy                 ...  -2156.59695401 Eh 
Thermal Enthalpy correction       ...      0.00094421 Eh       0.59 kcal/mol
-----------------------------------------------------------------------
Total Enthalpy                    ...  -2156.59600980 Eh


Note: Only C1 symmetry has been detected, increase convergence thresholds 
      if your molecule has a higher symmetry. Symmetry factor of 1.0 is   
      used for the rotational entropy correction. 
 

Note: Rotational entropy computed according to Herzberg 
Infrared and Raman Spectra, Chapter V,1, Van Nostrand Reinhold, 1945 
Point Group:  C1, Symmetry Number:   1  
Rotational constants in cm-1:     0.077354     0.009015     0.008341 

Vibrational entropy computed according to the QRRHO of S. Grimme
Chem.Eur.J. 2012 18 9955


-------
ENTROPY
-------

The entropy contributions are T*S = T*(S(el)+S(vib)+S(rot)+S(trans))
     S(el)   - electronic entropy
     S(vib)  - vibrational entropy
     S(rot)  - rotational entropy
     S(trans)- translational entropy
The entropies will be listed as multiplied by the temperature to get
units of energy

Electronic entropy                ...      0.00065446 Eh      0.41 kcal/mol
Vibrational entropy               ...      0.01704288 Eh     10.69 kcal/mol
Rotational entropy                ...      0.01520180 Eh      9.54 kcal/mol
Translational entropy             ...      0.01996671 Eh     12.53 kcal/mol
-----------------------------------------------------------------------
Final entropy term                ...      0.05286584 Eh     33.17 kcal/mol

In case the symmetry of your molecule has not been determined correctly
or in case you have a reason to use a different symmetry number we print 
out the resulting rotational entropy values for sn=1,12 :
 --------------------------------------------------------
|  sn= 1 | S(rot)=       0.01520180 Eh      9.54 kcal/mol|
|  sn= 2 | S(rot)=       0.01454734 Eh      9.13 kcal/mol|
|  sn= 3 | S(rot)=       0.01416451 Eh      8.89 kcal/mol|
|  sn= 4 | S(rot)=       0.01389289 Eh      8.72 kcal/mol|
|  sn= 5 | S(rot)=       0.01368220 Eh      8.59 kcal/mol|
|  sn= 6 | S(rot)=       0.01351006 Eh      8.48 kcal/mol|
|  sn= 7 | S(rot)=       0.01336451 Eh      8.39 kcal/mol|
|  sn= 8 | S(rot)=       0.01323843 Eh      8.31 kcal/mol|
|  sn= 9 | S(rot)=       0.01312722 Eh      8.24 kcal/mol|
|  sn=10 | S(rot)=       0.01302774 Eh      8.18 kcal/mol|
|  sn=11 | S(rot)=       0.01293775 Eh      8.12 kcal/mol|
|  sn=12 | S(rot)=       0.01285560 Eh      8.07 kcal/mol|
 --------------------------------------------------------


-------------------
GIBBS FREE ENERGY
-------------------

The Gibbs free energy is G = H - T*S

Total enthalpy                    ...  -2156.59600980 Eh 
Total entropy correction          ...     -0.05286584 Eh    -33.17 kcal/mol
-----------------------------------------------------------------------
Final Gibbs free energy         ...  -2156.64887564 Eh

For completeness - the Gibbs free energy minus the electronic energy
G-E(el)                           ...      0.14762713 Eh     92.64 kcal/mol



Timings for individual modules:

Sum of individual times         ...    13049.878 sec (= 217.498 min)
GTO integral calculation        ...       22.027 sec (=   0.367 min)   0.2 %
SCF iterations                  ...     1646.407 sec (=  27.440 min)  12.6 %
Solution of CP-SCF eqns.        ...       64.826 sec (=   1.080 min)   0.5 %
SCF Gradient evaluation         ...      301.105 sec (=   5.018 min)   2.3 %
Geometry relaxation             ...        0.789 sec (=   0.013 min)   0.0 %
Numerical frequency calculation ...    11014.724 sec (= 183.579 min)  84.4 %



                             ****ORCA TERMINATED NORMALLY****
TOTAL RUN TIME: 0 days 17 hours 59 minutes 40 seconds 291 msec
